 vasp.6.4.3 19Mar24 (build Jul 01 2024 12:12:31) complex                        
  
 executed on             LinuxIFC date 2025.12.20  22:40:03
 running   48 mpi-ranks, on    1 nodes
 distrk:  each k-point on   48 cores,    1 groups
 distr:  one band on NCORE=   4 cores,   12 groups


--------------------------------------------------------------------------------------------------------


 INCAR:
   SYSTEM = Cu9Pd6Y1 static calculation
   ALGO = Normal
   EDIFF = 1e-06
   EDIFFG = -0.001
   ISTART = 1
   ENCUT = 520.0
   IBRION = 2
   ISIF = 3
   ISMEAR = 1
   ISPIN = 2
   LASPH = True
   LMAXMIX = 4
   LORBIT = 11
   LREAL = Auto
   LCHARGE = True
   LWAVE = False
   MAGMOM = 16*0.6
   NELM = 100
   NSW = 0
   PREC = Accurate
   SIGMA = 0.2
   NCORE = 4

 POTCAR:    PAW_PBE Cu_pv 06Sep2000               
 POTCAR:    PAW_PBE Pd 04Jan2005                  
 POTCAR:    PAW_PBE Y_sv 25May2007                
 POTCAR:    PAW_PBE Cu_pv 06Sep2000               
   SHA256 =  cb7b504e2ea725fe1f25c85a9ac77d4012ce94cd394135b722c4e25ec297f1cb Cu_pv/POTCAR          
   COPYR  = (c) Copyright 06Sep2000 Georg Kresse                                                    
   COPYR  = This file is part of the software VASP. Any use, copying, and all other rights are regul
   COPYR  = If you do not have a valid VASP license, you may not use, copy or distribute this file. 
   VRHFIN =Cu: d10 p1                                                                               
   LEXCH  = PE                                                                                      
   EATOM  =  4120.1201 eV,  302.8203 Ry                                                             
                                                                                                    
   TITEL  = PAW_PBE Cu_pv 06Sep2000                                                                 
   LULTRA =        F    use ultrasoft PP ?                                                          
   IUNSCR =        1    unscreen: 0-lin 1-nonlin 2-no                                               
   RPACOR =    1.500    partial core radius                                                         
   POMASS =   63.546; ZVAL   =   17.000    mass and valenz                                          
   RCORE  =    2.000    outmost cutoff radius                                                       
   RWIGS  =    2.000; RWIGS  =    1.058    wigner-seitz radius (au A)                               
   ENMAX  =  368.648; ENMIN  =  276.486 eV                                                          
   RCLOC  =    1.304    cutoff for local pot                                                        
   LCOR   =        T    correct aug charges                                                         
   LPAW   =        T    paw PP                                                                      
   EAUG   =  758.233                                                                                
   DEXC   =    0.000                                                                                
   RMAX   =    2.046    core radius for proj-oper                                                   
   RAUG   =    1.300    factor for augmentation sphere                                              
   RDEP   =    2.025    radius for radial grids                                                     
   RDEPT  =    1.558    core radius for aug-charge                                                  
                                                                                                    
   Atomic configuration                                                                             
    8 entries                                                                                       
     n  l   j            E        occ.                                                              
     1  0  0.50     -8850.2467   2.0000                                                             
     2  0  0.50     -1062.3498   2.0000                                                             
     2  1  1.50      -916.8226   6.0000                                                             
     3  0  0.50      -114.6929   2.0000                                                             
     3  1  1.50       -72.1325   6.0000                                                             
     3  2  2.50        -5.0394  10.0000                                                             
     4  0  0.50        -4.6097   1.0000                                                             
     4  3  2.50        -1.3606   0.0000                                                             
   Description                                                                                      
     l       E           TYP  RCUT    TYP  RCUT                                                     
     1    -72.1324777     23  1.700                                                                 
     1     -1.3605826     23  1.700                                                                 
     2     -5.0393776     23  2.000                                                                 
     2     -6.3999602     23  2.000                                                                 
     0     -4.6097062     23  1.800                                                                 
     0     14.1620818     23  1.800                                                                 
  local pseudopotential read in
  partial core-charges read in
  partial kinetic energy density read in
  atomic valenz-charges read in
  non local Contribution for L=           1  read in
    real space projection operators read in
  non local Contribution for L=           1  read in
    real space projection operators read in
  non local Contribution for L=           2  read in
    real space projection operators read in
  non local Contribution for L=           2  read in
    real space projection operators read in
  non local Contribution for L=           0  read in
    real space projection operators read in
  non local Contribution for L=           0  read in
    real space projection operators read in
    PAW grid and wavefunctions read in
 
   number of l-projection  operators is LMAX  =           6
   number of lm-projection operators is LMMAX =          18
 
 POTCAR:    PAW_PBE Pd 04Jan2005                  
   SHA256 =  dd6f6f02930356371984e2b707ff5e456046761dc76b07c1eba30abd15eb3c39 Pd/POTCAR             
   COPYR  = (c) Copyright 04Jan2005 Georg Kresse                                                    
   COPYR  = This file is part of the software VASP. Any use, copying, and all other rights are regul
   COPYR  = If you do not have a valid VASP license, you may not use, copy or distribute this file. 
   VRHFIN =Pd : s1 d9                                                                               
   LEXCH  = PE                                                                                      
   EATOM  =   809.7530 eV,   59.5152 Ry                                                             
                                                                                                    
   TITEL  = PAW_PBE Pd 04Jan2005                                                                    
   LULTRA =        F    use ultrasoft PP ?                                                          
   IUNSCR =        1    unscreen: 0-lin 1-nonlin 2-no                                               
   RPACOR =    2.000    partial core radius                                                         
   POMASS =  106.420; ZVAL   =   10.000    mass and valenz                                          
   RCORE  =    2.600    outmost cutoff radius                                                       
   RWIGS  =    2.710; RWIGS  =    1.434    wigner-seitz radius (au A)                               
   ENMAX  =  250.925; ENMIN  =  188.194 eV                                                          
   ICORE  =        3    local potential                                                             
   LCOR   =        T    correct aug charges                                                         
   LPAW   =        T    paw PP                                                                      
   EAUG   =  416.230                                                                                
   DEXC   =    0.000                                                                                
   RMAX   =    2.653    core radius for proj-oper                                                   
   RAUG   =    1.300    factor for augmentation sphere                                              
   RDEP   =    2.734    radius for radial grids                                                     
   RDEPT  =    2.103    core radius for aug-charge                                                  
                                                                                                    
   Atomic configuration                                                                             
   12 entries                                                                                       
     n  l   j            E        occ.                                                              
     1  0  0.50    -24164.6631   2.0000                                                             
     2  0  0.50     -3530.9218   2.0000                                                             
     2  1  1.50     -3165.6822   6.0000                                                             
     3  0  0.50      -639.4577   2.0000                                                             
     3  1  1.50      -519.4532   6.0000                                                             
     3  2  2.50      -328.9757  10.0000                                                             
     4  0  0.50       -88.7014   2.0000                                                             
     4  1  1.50       -54.4540   6.0000                                                             
     4  2  2.50        -6.6878   9.0000                                                             
     5  0  0.50        -4.3543   1.0000                                                             
     5  1  0.50        -1.3606   0.0000                                                             
     4  3  2.50        -1.3606   0.0000                                                             
   Description                                                                                      
     l       E           TYP  RCUT    TYP  RCUT                                                     
     2     -6.6878251     23  2.400                                                                 
     2     -8.0484077     23  2.400                                                                 
     0     -4.3542939     23  2.400                                                                 
     0      4.3406793     23  2.400                                                                 
     1     -4.0817478     23  2.600                                                                 
     1     15.8380318     23  2.600                                                                 
     3     -4.0817478     23  2.400                                                                 
  local pseudopotential read in
  partial core-charges read in
  partial kinetic energy density read in
  atomic valenz-charges read in
  non local Contribution for L=           2  read in
    real space projection operators read in
  non local Contribution for L=           2  read in
    real space projection operators read in
  non local Contribution for L=           0  read in
    real space projection operators read in
  non local Contribution for L=           0  read in
    real space projection operators read in
  non local Contribution for L=           1  read in
    real space projection operators read in
  non local Contribution for L=           1  read in
    real space projection operators read in
    PAW grid and wavefunctions read in
 
   number of l-projection  operators is LMAX  =           6
   number of lm-projection operators is LMMAX =          18
 
 POTCAR:    PAW_PBE Y_sv 25May2007                
   SHA256 =  5e7f7496c6fa99024fec326bcd60dcee8ff7e886f9613d31da35c685a538a036 Y_sv/POTCAR           
   COPYR  = (c) Copyright 25May2007 Georg Kresse                                                    
   COPYR  = This file is part of the software VASP. Any use, copying, and all other rights are regul
   COPYR  = If you do not have a valid VASP license, you may not use, copy or distribute this file. 
   VRHFIN =Y: 4s4p5s4d                                                                              
   LEXCH  = PE                                                                                      
   EATOM  =  1046.9140 eV,   76.9460 Ry                                                             
                                                                                                    
   TITEL  = PAW_PBE Y_sv 25May2007                                                                  
   LULTRA =        F    use ultrasoft PP ?                                                          
   IUNSCR =        1    unscreen: 0-lin 1-nonlin 2-no                                               
   RPACOR =    2.200    partial core radius                                                         
   POMASS =   88.906; ZVAL   =   11.000    mass and valenz                                          
   RCORE  =    2.800    outmost cutoff radius                                                       
   RWIGS  =    3.430; RWIGS  =    1.815    wigner-seitz radius (au A)                               
   ENMAX  =  202.626; ENMIN  =  151.970 eV                                                          
   RCLOC  =    2.212    cutoff for local pot                                                        
   LCOR   =        T    correct aug charges                                                         
   LPAW   =        T    paw PP                                                                      
   EAUG   =  470.889                                                                                
   DEXC   =    0.000                                                                                
   RMAX   =    2.863    core radius for proj-oper                                                   
   RAUG   =    1.300    factor for augmentation sphere                                              
   RDEP   =    2.926    radius for radial grids                                                     
   RDEPT  =    2.280    core radius for aug-charge                                                  
                                                                                                    
   Atomic configuration                                                                             
   11 entries                                                                                       
     n  l   j            E        occ.                                                              
     1  0  0.50    -16863.0720   2.0000                                                             
     2  0  0.50     -2309.2881   2.0000                                                             
     2  1  1.50     -2055.5536   6.0000                                                             
     3  0  0.50      -367.1837   2.0000                                                             
     3  1  1.50      -284.8912   6.0000                                                             
     3  2  2.50      -149.4324  10.0000                                                             
     4  0  0.50       -46.3345   2.0000                                                             
     5  0  0.50        -3.6387   1.0000                                                             
     4  1  1.50       -26.3769   6.0000                                                             
     4  2  2.50        -1.6291   2.0000                                                             
     4  3  2.50        -1.3606   0.0000                                                             
   Description                                                                                      
     l       E           TYP  RCUT    TYP  RCUT                                                     
     0    -46.3344714     23  2.600                                                                 
     0     -3.6387002     23  2.700                                                                 
     1    -26.3769044     23  2.600                                                                 
     1    -27.7374870     23  2.600                                                                 
     2     -1.6291019     23  2.600                                                                 
     2      0.1354037     23  2.600                                                                 
     3     -1.3605826     23  2.800                                                                 
  local pseudopotential read in
  partial core-charges read in
  partial kinetic energy density read in
  atomic valenz-charges read in
  non local Contribution for L=           0  read in
    real space projection operators read in
  non local Contribution for L=           0  read in
    real space projection operators read in
  non local Contribution for L=           1  read in
    real space projection operators read in
  non local Contribution for L=           1  read in
    real space projection operators read in
  non local Contribution for L=           2  read in
    real space projection operators read in
  non local Contribution for L=           2  read in
    real space projection operators read in
  non local Contribution for L=           3  read in
    real space projection operators read in
    PAW grid and wavefunctions read in
 
   number of l-projection  operators is LMAX  =           7
   number of lm-projection operators is LMMAX =          25
 
 Optimization of the real space projectors (new method)

 maximal supplied QI-value         = 18.90
 optimisation between [QCUT,QGAM] = [ 11.53, 23.24] = [ 37.21,151.29] Ry 
 Optimized for a Real-space Cutoff    1.36 Angstroem

   l    n(q)    QCUT    max X(q) W(low)/X(q) W(high)/X(q)  e(spline) 
   1      9    11.527     3.172    0.21E-04    0.38E-04    0.11E-06
   1      9    11.527     4.083    0.67E-04    0.79E-04    0.20E-06
   2      9    11.527    65.342    0.13E-03    0.28E-03    0.26E-06
   2      9    11.527    61.381    0.13E-03    0.29E-03    0.26E-06
   0      9    11.527    65.742    0.32E-04    0.21E-04    0.72E-07
   0      9    11.527    30.431    0.28E-04    0.19E-04    0.65E-07
 Optimization of the real space projectors (new method)

 maximal supplied QI-value         = 14.36
 optimisation between [QCUT,QGAM] = [ 11.63, 23.27] = [ 37.90,151.59] Ry 
 Optimized for a Real-space Cutoff    1.49 Angstroem

   l    n(q)    QCUT    max X(q) W(low)/X(q) W(high)/X(q)  e(spline) 
   2      9    11.633    59.108    0.81E-04    0.17E-04    0.26E-06
   2      9    11.633    58.101    0.82E-04    0.18E-04    0.27E-06
   0     10    11.633   102.235    0.26E-04    0.16E-04    0.21E-06
   0     10    11.633    58.388    0.23E-04    0.15E-04    0.20E-06
   1     10    11.633    22.191    0.10E-03    0.20E-03    0.14E-06
   1     10    11.633    15.590    0.86E-04    0.17E-03    0.12E-06
 Optimization of the real space projectors (new method)

 maximal supplied QI-value         = 13.42
 optimisation between [QCUT,QGAM] = [ 11.67, 23.35] = [ 38.16,152.62] Ry 
 Optimized for a Real-space Cutoff    1.68 Angstroem

   l    n(q)    QCUT    max X(q) W(low)/X(q) W(high)/X(q)  e(spline) 
   0     12    11.673    14.902    0.22E-04    0.24E-05    0.52E-07
   0     12    11.673     9.294    0.34E-04    0.58E-05    0.89E-07
   1     11    11.673    69.520    0.10E-04    0.47E-04    0.49E-06
   1     11    11.673    72.085    0.10E-04    0.48E-04    0.50E-06
   2     11    11.673    62.934    0.94E-04    0.14E-04    0.82E-06
   2     11    11.673    49.749    0.91E-04    0.13E-04    0.79E-06
   3     10    11.673     8.311    0.92E-04    0.21E-04    0.59E-06
  PAW_PBE Cu_pv 06Sep2000               :
 energy of atom  1       EATOM=-4120.1201
 kinetic energy error for atom=    0.0541 (will be added to EATOM!!)
  PAW_PBE Pd 04Jan2005                  :
 energy of atom  2       EATOM= -809.7530
 kinetic energy error for atom=    0.0045 (will be added to EATOM!!)
  PAW_PBE Y_sv 25May2007                :
 energy of atom  3       EATOM=-1046.9140
 kinetic energy error for atom=    0.0008 (will be added to EATOM!!)
 
 
 POSCAR: Cu9 Pd6 Y1
  positions in direct lattice
  velocities in cartesian coordinates


 exchange-correlation table for PE
   RHO(1)=    0.500       N(1)  =     2000
   RHO(2)=  100.500       N(2)  =     4000

 VTST: version 4.1, (05/19/21)

 CHAIN: initializing optimizer
 
 OPT: Using VASP Conjugate-Gradient optimizer
 CHAIN: Read ICHAIN            0
 
 POSCAR: Cu9 Pd6 Y1
  positions in direct lattice
  velocities in cartesian coordinates
 


--------------------------------------------------------------------------------------------------------


 ion  position               nearest neighbor table
   1  0.994  0.985  0.985-  15 2.51  14 2.62  13 2.62  11 2.66  10 2.66  12 2.72  16 2.76
   2  0.994  0.985  0.515-  15 2.51  14 2.62  13 2.62  11 2.66  10 2.66  12 2.72  16 2.76
   3  0.994  0.515  0.985-  15 2.51  14 2.62  13 2.62  11 2.66  10 2.66  12 2.72  16 2.76
   4  0.994  0.515  0.515-  15 2.51  14 2.62  13 2.62  11 2.66  10 2.66  12 2.72  16 2.76
   5  0.506  0.985  0.985-  15 2.51  14 2.62  13 2.62  11 2.66  10 2.66  12 2.72  16 2.76
   6  0.506  0.985  0.515-  15 2.51  14 2.62  13 2.62  11 2.66  10 2.66  12 2.72  16 2.76
   7  0.506  0.515  0.985-  15 2.51  14 2.62  13 2.62  11 2.66  10 2.66  12 2.72  16 2.76
   8  0.506  0.515  0.515-  15 2.51  14 2.62  13 2.62  11 2.66  10 2.66  12 2.72  16 2.76
   9  0.250  0.750  0.750-
  10  0.250  0.250  0.750-   1 2.66   2 2.66   3 2.66   4 2.66   5 2.66   6 2.66   7 2.66   8 2.66
                            13 3.00  13 3.00  16 3.06  16 3.06
  11  0.250  0.750  0.250-   1 2.66   2 2.66   3 2.66   4 2.66   5 2.66   6 2.66   7 2.66   8 2.66
                            14 3.00  14 3.00  16 3.06  16 3.06
  12  0.750  0.250  0.250-   1 2.72   2 2.72   3 2.72   4 2.72   5 2.72   6 2.72   7 2.72   8 2.72
                            16 3.00  16 3.00  13 3.06  13 3.06  14 3.06  14 3.06
  13  0.750  0.250  0.750-   1 2.62   2 2.62   3 2.62   4 2.62   5 2.62   6 2.62   7 2.62   8 2.62
                            10 3.00  10 3.00  15 3.06  12 3.06  15 3.06  12 3.06
  14  0.750  0.750  0.250-   1 2.62   2 2.62   3 2.62   4 2.62   5 2.62   6 2.62   7 2.62   8 2.62
                            11 3.00  11 3.00  15 3.06  15 3.06  12 3.06  12 3.06
  15  0.750  0.750  0.750-   1 2.51   2 2.51   3 2.51   4 2.51   5 2.51   6 2.51   7 2.51   8 2.51
                            13 3.06  14 3.06  14 3.06  13 3.06
  16  0.250  0.250  0.250-   1 2.76   2 2.76   3 2.76   4 2.76   5 2.76   6 2.76   7 2.76   8 2.76
                            12 3.00  12 3.00  10 3.06  10 3.06  11 3.06  11 3.06
 
  LATTYP: Found a simple tetragonal cell.
 ALAT       =     6.1229238913
 C/A-ratio  =     0.9815477297
  
  Lattice vectors:
  
 A1 = (   0.0000000000,   6.1229238913,   0.0000000000)
 A2 = (   0.0000000000,  -0.0000000000,   6.1229238913)
 A3 = (   6.0099420449,   0.0000000000,   0.0000000000)


Analysis of symmetry for initial positions (statically):
=====================================================================
 Subroutine PRICEL returns:
 Original cell was already a primitive cell.
 

 Routine SETGRP: Setting up the symmetry group for a 
 simple tetragonal supercell.


 Subroutine GETGRP returns: Found 16 space group operations
 (whereof  2 operations were pure point group operations)
 out of a pool of 16 trial point group operations.


The static configuration has the point symmetry C_1h.
 The point group associated with its full space group is D_4h.


Analysis of symmetry for dynamics (positions and initial velocities):
=====================================================================
 Subroutine PRICEL returns:
 Original cell was already a primitive cell.
 

 Routine SETGRP: Setting up the symmetry group for a 
 simple tetragonal supercell.


 Subroutine GETGRP returns: Found 16 space group operations
 (whereof  2 operations were pure point group operations)
 out of a pool of 16 trial point group operations.


The dynamic configuration has the point symmetry C_1h.
 The point group associated with its full space group is D_4h.


Analysis of structural, dynamic, and magnetic symmetry:
=====================================================================
 Subroutine PRICEL returns:
 Original cell was already a primitive cell.
 

 Routine SETGRP: Setting up the symmetry group for a 
 simple tetragonal supercell.


 Subroutine GETGRP returns: Found 16 space group operations
 (whereof  2 operations were pure point group operations)
 out of a pool of 16 trial point group operations.


The overall configuration has the point symmetry C_1h.
 The point group associated with its full space group is D_4h.


 Subroutine INISYM returns: Found 16 space group operations
 (whereof  2 operations are pure point group operations),
 and found     1 'primitive' translations


----------------------------------------------------------------------------------------

                                     Primitive cell                                     

  volume of cell :     225.3139

  direct lattice vectors                    reciprocal lattice vectors
     6.009942045  0.000000000  0.000000000     0.166390956  0.000000000  0.000000000
     0.000000000  6.122923891  0.000000000     0.000000000  0.163320665  0.000000000
     0.000000000 -0.000000000  6.122923891     0.000000000 -0.000000000  0.163320665

  length of vectors
     6.009942045  6.122923891  6.122923891     0.166390956  0.163320665  0.163320665

  position of ions in fractional coordinates (direct lattice)
     0.994067119  0.985427826  0.985427826
     0.994067119  0.985427826  0.514572174
     0.994067119  0.514572174  0.985427826
     0.994067119  0.514572174  0.514572174
     0.505932881  0.985427826  0.985427826
     0.505932881  0.985427826  0.514572174
     0.505932881  0.514572174  0.985427826
     0.505932881  0.514572174  0.514572174
     0.250000000  0.750000000  0.750000000
     0.250000000  0.250000000  0.750000000
     0.250000000  0.750000000  0.250000000
     0.750000000  0.250000000  0.250000000
     0.750000000  0.250000000  0.750000000
     0.750000000  0.750000000  0.250000000
     0.750000000  0.750000000  0.750000000
     0.250000000  0.250000000  0.250000000

  ion indices of the primitive-cell ions
   primitive index   ion index
                 1           1
                 2           2
                 3           3
                 4           4
                 5           5
                 6           6
                 7           7
                 8           8
                 9           9
                10          10
                11          11
                12          12
                13          13
                14          14
                15          15
                16          16

----------------------------------------------------------------------------------------

 
 
 KPOINTS: K-Spacing Value to Generate K-Mesh: 0.03

Automatic generation of k-mesh.
 Grid dimensions read from file:
 generate k-points for:    4    4    4

 Generating k-lattice:

  Cartesian coordinates                     Fractional coordinates (reciprocal lattice)
     0.041597739  0.000000000  0.000000000     0.250000000  0.000000000  0.000000000
     0.000000000  0.040830166  0.000000000     0.000000000  0.250000000  0.000000000
     0.000000000 -0.000000000  0.040830166     0.000000000  0.000000000  0.250000000

  Length of vectors
     0.041597739  0.040830166  0.040830166

  Shift w.r.t. Gamma in fractional coordinates (k-lattice)
     0.500000000  0.500000000  0.500000000

 
 Subroutine IBZKPT returns following result:
 ===========================================
 
 Found      6 irreducible k-points:
 
 Following reciprocal coordinates:
            Coordinates               Weight
  0.125000  0.125000  0.125000      8.000000
  0.375000  0.125000  0.125000      8.000000
  0.125000  0.375000  0.125000     16.000000
  0.375000  0.375000  0.125000     16.000000
  0.125000  0.375000  0.375000      8.000000
  0.375000  0.375000  0.375000      8.000000
 
 Following cartesian coordinates:
            Coordinates               Weight
  0.020799  0.020415  0.020415      8.000000
  0.062397  0.020415  0.020415      8.000000
  0.020799  0.061245  0.020415     16.000000
  0.062397  0.061245  0.020415     16.000000
  0.020799  0.061245  0.061245      8.000000
  0.062397  0.061245  0.061245      8.000000
 


--------------------------------------------------------------------------------------------------------




 Dimension of arrays:
   k-points           NKPTS =      6   k-points in BZ     NKDIM =      6   number of bands    NBANDS=    144
   number of dos      NEDOS =    301   number of ions     NIONS =     16
   non local maximal  LDIM  =      7   non local SUM 2l+1 LMDIM =     25
   total plane-waves  NPLWV = 110592
   max r-space proj   IRMAX =   9730   max aug-charges    IRDMAX=  35580
   dimension x,y,z NGX =    48 NGY =   48 NGZ =   48
   dimension x,y,z NGXF=    96 NGYF=   96 NGZF=   96
   support grid    NGXF=    96 NGYF=   96 NGZF=   96
   ions per type =               9   6   1
   NGX,Y,Z   is equivalent  to a cutoff of  13.28, 13.03, 13.03 a.u.
   NGXF,Y,Z  is equivalent  to a cutoff of  26.56, 26.07, 26.07 a.u.

 SYSTEM =  Cu9Pd6Y1 static calculation             
 POSCAR =  Cu9 Pd6 Y1                              

 Startparameter for this run:
   NWRITE =      2    write-flag & timer
   PREC   = accura    normal or accurate (medium, high low for compatibility)
   ISTART =      0    job   : 0-new  1-cont  2-samecut
   ICHARG =      2    charge: 1-file 2-atom 10-const
   ISPIN  =      2    spin polarized calculation?
   LNONCOLLINEAR =      F non collinear calculations
   LSORBIT =      F    spin-orbit coupling
   INIWAV =      1    electr: 0-lowe 1-rand  2-diag
   LASPH  =      T    aspherical Exc in radial PAW
 Electronic Relaxation 1
   ENCUT  =  520.0 eV  38.22 Ry    6.18 a.u.  11.17 11.38 11.38*2*pi/ulx,y,z
   ENINI  =  520.0     initial cutoff
   ENAUG  =  758.2 eV  augmentation charge cutoff
   NELM   =    100;   NELMIN=  2; NELMDL=  0     # of ELM steps 
   EDIFF  = 0.1E-05   stopping-criterion for ELM
   LREAL  =      T    real-space projection
   NLSPLINE    = F    spline interpolate recip. space projectors
   LCOMPAT=      F    compatible to vasp.4.4
   GGA_COMPAT  = T    GGA compatible to vasp.4.4-vasp.4.6
   LMAXPAW     = -100 max onsite density
   LMAXMIX     =    4 max onsite mixed and CHGCAR
   VOSKOWN=      0    Vosko Wilk Nusair interpolation
   ROPT   =   -0.00025  -0.00025  -0.00025
 Ionic relaxation
   EDIFFG = -.1E-02   stopping-criterion for IOM
   NSW    =      0    number of steps for IOM
   NBLOCK =      1;   KBLOCK =      1    inner block; outer block 
   IBRION =     -1    ionic relax: 0-MD 1-quasi-New 2-CG
   NFREE  =      1    steps in history (QN), initial steepest desc. (CG)
   ISIF   =      3    stress and relaxation
   IWAVPR =     10    prediction:  0-non 1-charg 2-wave 3-comb
   ISYM   =      2    0-nonsym 1-usesym 2-fastsym
   LCORR  =      T    Harris-Foulkes like correction to forces

   POTIM  = 0.5000    time-step for ionic-motion
   TEIN   =    0.0    initial temperature
   TEBEG  =    0.0;   TEEND  =   0.0 temperature during run
   SMASS  =  -3.00    Nose mass-parameter (am)
   estimated Nose-frequenzy (Omega)   =  0.10E-29 period in steps = 0.13E+47 mass=  -0.825E-27a.u.
   SCALEE = 1.0000    scale energy and forces
   NPACO  =    256;   APACO  = 10.0  distance and # of slots for P.C.
   PSTRESS=    0.0 pullay stress

  Mass of Ions in am
   POMASS =  63.55106.42 88.91
  Ionic Valenz
   ZVAL   =  17.00 10.00 11.00
  Atomic Wigner-Seitz radii
   RWIGS  =  -1.00 -1.00 -1.00
  virtual crystal weights 
   VCA    =   1.00  1.00  1.00
   NELECT =     224.0000    total number of electrons
   NUPDOWN=      -1.0000    fix difference up-down

 DOS related values:
   EMIN   =  10.00;   EMAX   =-10.00  energy-range for DOS
   EFERMI =   0.00;   METHOD = LEGACY      
   ISMEAR =     1;   SIGMA  =   0.20  broadening in eV -4-tet -1-fermi 0-gaus

 Electronic relaxation 2 (details)
   IALGO  =     38    algorithm
   LDIAG  =      T    sub-space diagonalisation (order eigenvalues)
   LSUBROT=      F    optimize rotation matrix (better conditioning)
   TURBO    =      0    0=normal 1=particle mesh
   IRESTART =      0    0=no restart 2=restart with 2 vectors
   NREBOOT  =      0    no. of reboots
   NMIN     =      0    reboot dimension
   EREF     =   0.00    reference energy to select bands
   IMIX   =      4    mixing-type and parameters
     AMIX     =   0.40;   BMIX     =  1.00
     AMIX_MAG =   1.60;   BMIX_MAG =  1.00
     AMIN     =   0.10
     WC   =   100.;   INIMIX=   1;  MIXPRE=   1;  MAXMIX= -45

 Intra band minimization:
   WEIMIN = 0.0000     energy-eigenvalue tresh-hold
   EBREAK =  0.17E-08  absolut break condition
   DEPER  =   0.30     relativ break condition  

   TIME   =   0.40     timestep for ELM

  volume/ion in A,a.u.               =      14.08        95.03
  Fermi-wavevector in a.u.,A,eV,Ry     =   1.633910  3.087642 36.322961  2.669662
  Thomas-Fermi vector in A             =   2.725637
 
 Write flags
   LWAVE        =      F    write WAVECAR
   LDOWNSAMPLE  =      F    k-point downsampling of WAVECAR
   LCHARG       =      T    write CHGCAR
   LVTOT        =      F    write LOCPOT, total local potential
   LVHAR        =      F    write LOCPOT, Hartree potential only
   WRT_POTENTIAL= false  ! write potential to hdf5 file
   LELF         =      F    write electronic localiz. function (ELF)
   LORBIT       =     11    0 simple, 1 ext, 2 COOP (PROOUT), +10 PAW based schemes


 Dipole corrections
   LMONO      =      F    monopole corrections only (constant potential shift)
   LDIPOL     =      F    correct potential (dipole corrections)
   IDIPOL     =      0    1-x, 2-y, 3-z, 4-all directions 
   EPSILON    =  1.0000000 bulk dielectric constant
   LVACPOTAV  =      F  vacuum potentials using an averaging scheme for the charge density
   VACPOTFLAT =  0.1000000 required flatness to determine vacuum potential
 Exchange correlation treatment:
   GGA     = PE    functional components
   XC_C    = 1    coefficients multiplying the functional components
   LIBXC   =     F    Libxc                    
   VOSKOWN =     0    Vosko Wilk Nusair interpolation
   LHFCALC =     F    Hartree Fock is set to
   LHFONE  =     F    Hartree Fock one center treatment
   AEXX    =    0.0000 exact exchange contribution

 Parameters of functionals:
   PE:
     No parameter
 
 Van der Waals corrections
   IVDW    =     0    specifies the selected vdW correction

 Linear response parameters
   LEPSILON=     F    determine dielectric tensor
   LRPA    =     F    only Hartree local field effects (RPA)
   LNABLA  =     F    use nabla operator in PAW spheres
   LVEL    =     F    velocity operator in full k-point grid
   CSHIFT  =0.1000    complex shift for real part using Kramers Kronig
   OMEGAMAX=  -1.0    maximum frequency
   DEG_THRESHOLD= 0.2000000E-02 threshold for treating states as degnerate
   RTIME   =   -0.100 relaxation time in fs
  (WPLASMAI=    0.000 imaginary part of plasma frequency in eV, 0.658/RTIME)
   DFIELD  = 0.0000000 0.0000000 0.0000000 field for delta impulse in time
 
  Optional k-point grid parameters
   LKPOINTS_OPT  =     F    use optional k-point grid
   KPOINTS_OPT_MODE=     1    mode for optional k-point grid
 
 Orbital magnetization related:
   ORBITALMAG=     F  switch on orbital magnetization
   LCHIMAG   =     F  perturbation theory with respect to B field
   DQ        =  0.001000  dq finite difference perturbation B field
   LLRAUG    =     F  two centre corrections for induced B field
   LBONE     =     F  B-component reconstruction in AE one-centre
   LVGVCALC  =     T  calculate vGv susceptibility
   LVGVAPPL  =     F  apply vGv susceptibility instead of pGv for G=0

 Random number generation:
   RANDOM_GENERATOR = DEFAULT
   PCG_SEED         = not used


--------------------------------------------------------------------------------------------------------


 Static calculation
 charge density and potential will be updated during run
 spin polarized calculation
 Variant of blocked Davidson
 Davidson routine will perform the subspace rotation
 perform sub-space diagonalisation
    after iterative eigenvector-optimisation
 modified Broyden-mixing scheme, WC =      100.0
 initial mixing is a Kerker type mixing with AMIX =  0.4000 and BMIX =      1.0000
 Hartree-type preconditioning will be used
 using additional bands           32
 real space projection scheme for non local part
 use partial core corrections
 calculate Harris-corrections to forces 
   (improved forces if not selfconsistent)
 use gradient corrections 
 use of overlap-Matrix (Vanderbilt PP)
 Methfessel and Paxton  Order N= 1 SIGMA  =   0.20


--------------------------------------------------------------------------------------------------------


  energy-cutoff  :      520.00
  volume of cell :      225.31
      direct lattice vectors                 reciprocal lattice vectors
     6.009942045  0.000000000  0.000000000     0.166390956  0.000000000  0.000000000
     0.000000000  6.122923891  0.000000000     0.000000000  0.163320665  0.000000000
     0.000000000 -0.000000000  6.122923891     0.000000000 -0.000000000  0.163320665

  length of vectors
     6.009942045  6.122923891  6.122923891     0.166390956  0.163320665  0.163320665


 
 k-points in units of 2pi/SCALE and weight: K-Spacing Value to Generate K-Mesh: 0.03
   0.02079887  0.02041508  0.02041508       0.125
   0.06239661  0.02041508  0.02041508       0.125
   0.02079887  0.06124525  0.02041508       0.250
   0.06239661  0.06124525  0.02041508       0.250
   0.02079887  0.06124525  0.06124525       0.125
   0.06239661  0.06124525  0.06124525       0.125
 
 k-points in reciprocal lattice and weights: K-Spacing Value to Generate K-Mesh: 0.03
   0.12500000  0.12500000  0.12500000       0.125
   0.37500000  0.12500000  0.12500000       0.125
   0.12500000  0.37500000  0.12500000       0.250
   0.37500000  0.37500000  0.12500000       0.250
   0.12500000  0.37500000  0.37500000       0.125
   0.37500000  0.37500000  0.37500000       0.125
 
 position of ions in fractional coordinates (direct lattice) 
   0.99406712  0.98542783  0.98542783
   0.99406712  0.98542783  0.51457217
   0.99406712  0.51457217  0.98542783
   0.99406712  0.51457217  0.51457217
   0.50593288  0.98542783  0.98542783
   0.50593288  0.98542783  0.51457217
   0.50593288  0.51457217  0.98542783
   0.50593288  0.51457217  0.51457217
   0.25000000  0.75000000  0.75000000
   0.25000000  0.25000000  0.75000000
   0.25000000  0.75000000  0.25000000
   0.75000000  0.25000000  0.25000000
   0.75000000  0.25000000  0.75000000
   0.75000000  0.75000000  0.25000000
   0.75000000  0.75000000  0.75000000
   0.25000000  0.25000000  0.25000000
 
 position of ions in cartesian coordinates  (Angst):
   5.97428577  6.03369958  6.03369958
   5.97428577  6.03369958  3.15068626
   5.97428577  3.15068626  6.03369958
   5.97428577  3.15068626  3.15068626
   3.04062730  6.03369958  6.03369958
   3.04062730  6.03369958  3.15068626
   3.04062730  3.15068626  6.03369958
   3.04062730  3.15068626  3.15068626
   1.50248551  4.59219292  4.59219292
   1.50248551  1.53073097  4.59219292
   1.50248551  4.59219292  1.53073097
   4.50745653  1.53073097  1.53073097
   4.50745653  1.53073097  4.59219292
   4.50745653  4.59219292  1.53073097
   4.50745653  4.59219292  4.59219292
   1.50248551  1.53073097  1.53073097
 


--------------------------------------------------------------------------------------------------------


 k-point     1 :   0.1250 0.1250 0.1250  plane waves:    6063
 k-point     2 :   0.3750 0.1250 0.1250  plane waves:    6077
 k-point     3 :   0.1250 0.3750 0.1250  plane waves:    6058
 k-point     4 :   0.3750 0.3750 0.1250  plane waves:    6069
 k-point     5 :   0.1250 0.3750 0.3750  plane waves:    6064
 k-point     6 :   0.3750 0.3750 0.3750  plane waves:    6046

 maximum and minimum number of plane-waves per node :      1539     1502

 maximum number of plane-waves:      6077
 maximum index in each direction: 
   IXMAX=   11   IYMAX=   11   IZMAX=   11
   IXMIN=  -11   IYMIN=  -11   IZMIN=  -11


 real space projection operators:
  total allocation   :      13768.95 KBytes
  max/ min on nodes  :       3451.58       3429.66


 parallel 3D FFT for wavefunctions:
    minimum data exchange during FFTs selected (reduces bandwidth)
 parallel 3D FFT for charge:
    minimum data exchange during FFTs selected (reduces bandwidth)


 total amount of memory used by VASP MPI-rank0    46110. kBytes
=======================================================================

   base      :      30000. kBytes
   nonlr-proj:       6857. kBytes
   fftplans  :       1457. kBytes
   grid      :       3879. kBytes
   one-center:        240. kBytes
   wavefun   :       3677. kBytes
 
     INWAV:  cpu time      0.0001: real time      0.0004
 Broyden mixing: mesh for mixing (old mesh)
   NGX = 23   NGY = 23   NGZ = 23
  (NGX  = 96   NGY  = 96   NGZ  = 96)
  gives a total of  12167 points

 initial charge density was supplied:
 charge density of overlapping atoms calculated
 number of electron     224.0000000 magnetization       9.6000000
 keeping initial charge density in first step


--------------------------------------------------------------------------------------------------------


 Maximum index for non-local projection operator         2383
 Maximum index for augmentation-charges          534 (set IRDMAX)


--------------------------------------------------------------------------------------------------------


 First call to EWALD:  gamma=   0.291
 Maximum number of real-space cells 3x 3x 3
 Maximum number of reciprocal cells 3x 3x 3

    FEWALD:  cpu time      0.0010: real time      0.0242


--------------------------------------- Ionic step        1  -------------------------------------------




--------------------------------------- Iteration      1(   1)  ---------------------------------------


    POTLOK:  cpu time      0.0265: real time      0.0461
    SETDIJ:  cpu time      0.8100: real time      0.8154
     EDDAV:  cpu time      2.8569: real time      3.3089
       DOS:  cpu time      0.0017: real time      0.0348
    --------------------------------------------
      LOOP:  cpu time      3.6951: real time      4.2053

 eigenvalue-minimisations  :  4092
 total energy-change (2. order) : 0.2870364E+04  (-0.1341117E+05)
 number of electron     224.0000000 magnetization       9.6000000
 augmentation part      224.0000000 magnetization       9.6000000

 Free energy of the ion-electron system (eV)
  ---------------------------------------------------
  alpha Z        PSCENC =      1545.49041624
  Ewald energy   TEWEN  =    -27552.22915297
  -Hartree energ DENC   =    -14564.79763912
  -exchange      EXHF   =         0.00000000
  -V(xc)+E(xc)   XCENC  =       842.60939196
  PAW double counting   =     36961.04583861   -37919.31422291
  entropy T*S    EENTRO =        -0.00093718
  eigenvalues    EBANDS =       571.56207857
  atomic energy  EATOM  =     42985.99789090
  Solvation  Ediel_sol  =         0.00000000
  ---------------------------------------------------
  free energy    TOTEN  =      2870.36366409 eV

  energy without entropy =     2870.36460127  energy(sigma->0) =     2870.36397648


--------------------------------------------------------------------------------------------------------




--------------------------------------- Iteration      1(   2)  ---------------------------------------


     EDDAV:  cpu time      2.3970: real time      2.4296
       DOS:  cpu time      0.0005: real time      0.0005
    --------------------------------------------
      LOOP:  cpu time      2.3974: real time      2.4300

 eigenvalue-minimisations  :  3456
 total energy-change (2. order) :-0.2714813E+04  (-0.2607937E+04)
 number of electron     224.0000000 magnetization       9.6000000
 augmentation part      224.0000000 magnetization       9.6000000

 Free energy of the ion-electron system (eV)
  ---------------------------------------------------
  alpha Z        PSCENC =      1545.49041624
  Ewald energy   TEWEN  =    -27552.22915297
  -Hartree energ DENC   =    -14564.79763912
  -exchange      EXHF   =         0.00000000
  -V(xc)+E(xc)   XCENC  =       842.60939196
  PAW double counting   =     36961.04583861   -37919.31422291
  entropy T*S    EENTRO =        -0.00714096
  eigenvalues    EBANDS =     -2143.24455068
  atomic energy  EATOM  =     42985.99789090
  Solvation  Ediel_sol  =         0.00000000
  ---------------------------------------------------
  free energy    TOTEN  =       155.55083105 eV

  energy without entropy =      155.55797201  energy(sigma->0) =      155.55321137


--------------------------------------------------------------------------------------------------------




--------------------------------------- Iteration      1(   3)  ---------------------------------------


     EDDAV:  cpu time      2.5650: real time      2.5956
       DOS:  cpu time      0.0005: real time      0.0005
    --------------------------------------------
      LOOP:  cpu time      2.5655: real time      2.5961

 eigenvalue-minimisations  :  3756
 total energy-change (2. order) :-0.2285324E+03  (-0.2082630E+03)
 number of electron     224.0000000 magnetization       9.6000000
 augmentation part      224.0000000 magnetization       9.6000000

 Free energy of the ion-electron system (eV)
  ---------------------------------------------------
  alpha Z        PSCENC =      1545.49041624
  Ewald energy   TEWEN  =    -27552.22915297
  -Hartree energ DENC   =    -14564.79763912
  -exchange      EXHF   =         0.00000000
  -V(xc)+E(xc)   XCENC  =       842.60939196
  PAW double counting   =     36961.04583861   -37919.31422291
  entropy T*S    EENTRO =        -0.01829015
  eigenvalues    EBANDS =     -2371.76577817
  atomic energy  EATOM  =     42985.99789090
  Solvation  Ediel_sol  =         0.00000000
  ---------------------------------------------------
  free energy    TOTEN  =       -72.98154563 eV

  energy without entropy =      -72.96325548  energy(sigma->0) =      -72.97544892


--------------------------------------------------------------------------------------------------------




--------------------------------------- Iteration      1(   4)  ---------------------------------------


     EDDAV:  cpu time      3.1926: real time      3.2348
       DOS:  cpu time      0.0005: real time      0.0005
    --------------------------------------------
      LOOP:  cpu time      3.1931: real time      3.2354

 eigenvalue-minimisations  :  4872
 total energy-change (2. order) :-0.1121026E+02  (-0.1102617E+02)
 number of electron     224.0000000 magnetization       9.6000000
 augmentation part      224.0000000 magnetization       9.6000000

 Free energy of the ion-electron system (eV)
  ---------------------------------------------------
  alpha Z        PSCENC =      1545.49041624
  Ewald energy   TEWEN  =    -27552.22915297
  -Hartree energ DENC   =    -14564.79763912
  -exchange      EXHF   =         0.00000000
  -V(xc)+E(xc)   XCENC  =       842.60939196
  PAW double counting   =     36961.04583861   -37919.31422291
  entropy T*S    EENTRO =        -0.01814315
  eigenvalues    EBANDS =     -2382.97618076
  atomic energy  EATOM  =     42985.99789090
  Solvation  Ediel_sol  =         0.00000000
  ---------------------------------------------------
  free energy    TOTEN  =       -84.19180121 eV

  energy without entropy =      -84.17365807  energy(sigma->0) =      -84.18575350


--------------------------------------------------------------------------------------------------------




--------------------------------------- Iteration      1(   5)  ---------------------------------------


     EDDAV:  cpu time      2.9844: real time      3.0209
       DOS:  cpu time      0.0005: real time      0.0005
    CHARGE:  cpu time      0.0648: real time      0.0655
    MIXING:  cpu time      0.0024: real time      0.0024
    --------------------------------------------
      LOOP:  cpu time      3.0522: real time      3.0894

 eigenvalue-minimisations  :  4524
 total energy-change (2. order) :-0.3833379E+00  (-0.3820105E+00)
 number of electron     223.9999848 magnetization       3.7490065
 augmentation part      118.4821825 magnetization       3.2758839

 Broyden mixing:
  rms(total) = 0.63960E+01    rms(broyden)= 0.63957E+01
  rms(prec ) = 0.78619E+01
  weight for this iteration     100.00

 Free energy of the ion-electron system (eV)
  ---------------------------------------------------
  alpha Z        PSCENC =      1545.49041624
  Ewald energy   TEWEN  =    -27552.22915297
  -Hartree energ DENC   =    -14564.79763912
  -exchange      EXHF   =         0.00000000
  -V(xc)+E(xc)   XCENC  =       842.60939196
  PAW double counting   =     36961.04583861   -37919.31422291
  entropy T*S    EENTRO =        -0.02001713
  eigenvalues    EBANDS =     -2383.35764467
  atomic energy  EATOM  =     42985.99789090
  Solvation  Ediel_sol  =         0.00000000
  ---------------------------------------------------
  free energy    TOTEN  =       -84.57513911 eV

  energy without entropy =      -84.55512198  energy(sigma->0) =      -84.56846673


--------------------------------------------------------------------------------------------------------




--------------------------------------- Iteration      1(   6)  ---------------------------------------


    POTLOK:  cpu time      0.0274: real time      0.0279
    SETDIJ:  cpu time      0.8155: real time      0.8203
     EDDAV:  cpu time      2.6251: real time      2.6557
       DOS:  cpu time      0.0005: real time      0.0005
    CHARGE:  cpu time      0.0639: real time      0.0644
    MIXING:  cpu time      0.0017: real time      0.0563
    --------------------------------------------
      LOOP:  cpu time      3.5342: real time      3.6253

 eigenvalue-minimisations  :  3804
 total energy-change (2. order) :-0.1295872E+02  (-0.1934812E+02)
 number of electron     223.9999841 magnetization       2.4716990
 augmentation part      128.1448116 magnetization       1.9698468

 Broyden mixing:
  rms(total) = 0.72008E+01    rms(broyden)= 0.72005E+01
  rms(prec ) = 0.86516E+01
  weight for this iteration     100.00

 eigenvalues of (default mixing * dielectric matrix)
  average eigenvalue GAMMA=   0.4507
  0.4507

 Free energy of the ion-electron system (eV)
  ---------------------------------------------------
  alpha Z        PSCENC =      1545.49041624
  Ewald energy   TEWEN  =    -27552.22915297
  -Hartree energ DENC   =    -13776.98842599
  -exchange      EXHF   =         0.00000000
  -V(xc)+E(xc)   XCENC  =       816.63526876
  PAW double counting   =     37022.65063166   -37933.26254442
  entropy T*S    EENTRO =        -0.00170844
  eigenvalues    EBANDS =     -3205.82623510
  atomic energy  EATOM  =     42985.99789090
  Solvation  Ediel_sol  =         0.00000000
  ---------------------------------------------------
  free energy    TOTEN  =       -97.53385938 eV

  energy without entropy =      -97.53215095  energy(sigma->0) =      -97.53328990


--------------------------------------------------------------------------------------------------------




--------------------------------------- Iteration      1(   7)  ---------------------------------------


    POTLOK:  cpu time      0.0270: real time      0.0275
    SETDIJ:  cpu time      0.8233: real time      0.8282
     EDDAV:  cpu time      2.7996: real time      2.8341
       DOS:  cpu time      0.0005: real time      0.0005
    CHARGE:  cpu time      0.0643: real time      0.0647
    MIXING:  cpu time      0.0013: real time      0.0239
    --------------------------------------------
      LOOP:  cpu time      3.7160: real time      3.7788

 eigenvalue-minimisations  :  4188
 total energy-change (2. order) : 0.2188979E+02  (-0.5657884E+01)
 number of electron     223.9999842 magnetization       0.8045541
 augmentation part      126.8377333 magnetization       0.3833471

 Broyden mixing:
  rms(total) = 0.16680E+01    rms(broyden)= 0.16679E+01
  rms(prec ) = 0.21744E+01
  weight for this iteration     100.00

 eigenvalues of (default mixing * dielectric matrix)
  average eigenvalue GAMMA=   0.7828
  1.0331  0.5325

 Free energy of the ion-electron system (eV)
  ---------------------------------------------------
  alpha Z        PSCENC =      1545.49041624
  Ewald energy   TEWEN  =    -27552.22915297
  -Hartree energ DENC   =    -14062.14765217
  -exchange      EXHF   =         0.00000000
  -V(xc)+E(xc)   XCENC  =       825.76012927
  PAW double counting   =     38169.18415797   -39142.64140512
  entropy T*S    EENTRO =        -0.00322305
  eigenvalues    EBANDS =     -2845.05522984
  atomic energy  EATOM  =     42985.99789090
  Solvation  Ediel_sol  =         0.00000000
  ---------------------------------------------------
  free energy    TOTEN  =       -75.64406877 eV

  energy without entropy =      -75.64084573  energy(sigma->0) =      -75.64299442


--------------------------------------------------------------------------------------------------------




--------------------------------------- Iteration      1(   8)  ---------------------------------------


    POTLOK:  cpu time      0.0270: real time      0.0275
    SETDIJ:  cpu time      0.8276: real time      0.8328
     EDDAV:  cpu time      2.7744: real time      2.8086
       DOS:  cpu time      0.0006: real time      0.0006
    CHARGE:  cpu time      0.0645: real time      0.0649
    MIXING:  cpu time      0.0010: real time      0.0108
    --------------------------------------------
      LOOP:  cpu time      3.6951: real time      3.7453

 eigenvalue-minimisations  :  4140
 total energy-change (2. order) : 0.1208268E+01  (-0.1255130E+01)
 number of electron     223.9999843 magnetization      -0.2912478
 augmentation part      124.0486319 magnetization      -0.5055287

 Broyden mixing:
  rms(total) = 0.15778E+01    rms(broyden)= 0.15777E+01
  rms(prec ) = 0.17406E+01
  weight for this iteration     100.00

 eigenvalues of (default mixing * dielectric matrix)
  average eigenvalue GAMMA=   0.9548
  1.7600  0.5522  0.5522

 Free energy of the ion-electron system (eV)
  ---------------------------------------------------
  alpha Z        PSCENC =      1545.49041624
  Ewald energy   TEWEN  =    -27552.22915297
  -Hartree energ DENC   =    -14208.21101623
  -exchange      EXHF   =         0.00000000
  -V(xc)+E(xc)   XCENC  =       830.52058909
  PAW double counting   =     38878.31314548   -39879.40716044
  entropy T*S    EENTRO =         0.00005416
  eigenvalues    EBANDS =     -2674.91056653
  atomic energy  EATOM  =     42985.99789090
  Solvation  Ediel_sol  =         0.00000000
  ---------------------------------------------------
  free energy    TOTEN  =       -74.43580030 eV

  energy without entropy =      -74.43585446  energy(sigma->0) =      -74.43581835


--------------------------------------------------------------------------------------------------------




--------------------------------------- Iteration      1(   9)  ---------------------------------------


    POTLOK:  cpu time      0.0273: real time      0.0278
    SETDIJ:  cpu time      0.8214: real time      0.8265
     EDDAV:  cpu time      2.6610: real time      2.6932
       DOS:  cpu time      0.0007: real time      0.0007
    CHARGE:  cpu time      0.0643: real time      0.0648
    MIXING:  cpu time      0.0008: real time      0.0008
    --------------------------------------------
      LOOP:  cpu time      3.5754: real time      3.6138

 eigenvalue-minimisations  :  3924
 total energy-change (2. order) :-0.1436327E+00  (-0.2537830E+00)
 number of electron     223.9999844 magnetization      -0.7037359
 augmentation part      124.2123452 magnetization      -0.7317874

 Broyden mixing:
  rms(total) = 0.11792E+01    rms(broyden)= 0.11791E+01
  rms(prec ) = 0.14380E+01
  weight for this iteration     100.00

 eigenvalues of (default mixing * dielectric matrix)
  average eigenvalue GAMMA=   0.9873
  2.1863  0.6291  0.6291  0.5049

 Free energy of the ion-electron system (eV)
  ---------------------------------------------------
  alpha Z        PSCENC =      1545.49041624
  Ewald energy   TEWEN  =    -27552.22915297
  -Hartree energ DENC   =    -14182.09757590
  -exchange      EXHF   =         0.00000000
  -V(xc)+E(xc)   XCENC  =       829.61035783
  PAW double counting   =     39431.01952296   -40442.70676121
  entropy T*S    EENTRO =         0.00032182
  eigenvalues    EBANDS =     -2689.66445270
  atomic energy  EATOM  =     42985.99789090
  Solvation  Ediel_sol  =         0.00000000
  ---------------------------------------------------
  free energy    TOTEN  =       -74.57943303 eV

  energy without entropy =      -74.57975486  energy(sigma->0) =      -74.57954031


--------------------------------------------------------------------------------------------------------




--------------------------------------- Iteration      1(  10)  ---------------------------------------


    POTLOK:  cpu time      0.0274: real time      0.0279
    SETDIJ:  cpu time      0.8233: real time      0.8283
     EDDAV:  cpu time      2.7106: real time      2.7430
       DOS:  cpu time      0.0007: real time      0.0007
    CHARGE:  cpu time      0.0641: real time      0.0645
    MIXING:  cpu time      0.0008: real time      0.0009
    --------------------------------------------
      LOOP:  cpu time      3.6269: real time      3.6653

 eigenvalue-minimisations  :  4020
 total energy-change (2. order) : 0.3171916E+00  (-0.7288108E-01)
 number of electron     223.9999843 magnetization      -0.3081300
 augmentation part      124.6753565 magnetization      -0.2274520

 Broyden mixing:
  rms(total) = 0.56143E+00    rms(broyden)= 0.56142E+00
  rms(prec ) = 0.67933E+00
  weight for this iteration     100.00

 eigenvalues of (default mixing * dielectric matrix)
  average eigenvalue GAMMA=   1.0856
  2.6477  1.0676  0.6284  0.6284  0.4559

 Free energy of the ion-electron system (eV)
  ---------------------------------------------------
  alpha Z        PSCENC =      1545.49041624
  Ewald energy   TEWEN  =    -27552.22915297
  -Hartree energ DENC   =    -14140.93993654
  -exchange      EXHF   =         0.00000000
  -V(xc)+E(xc)   XCENC  =       828.37415388
  PAW double counting   =     39771.71777941   -40786.46024708
  entropy T*S    EENTRO =        -0.00426913
  eigenvalues    EBANDS =     -2726.20887618
  atomic energy  EATOM  =     42985.99789090
  Solvation  Ediel_sol  =         0.00000000
  ---------------------------------------------------
  free energy    TOTEN  =       -74.26224148 eV

  energy without entropy =      -74.25797235  energy(sigma->0) =      -74.26081843


--------------------------------------------------------------------------------------------------------




--------------------------------------- Iteration      1(  11)  ---------------------------------------


    POTLOK:  cpu time      0.0274: real time      0.0279
    SETDIJ:  cpu time      0.8282: real time      0.8332
     EDDAV:  cpu time      2.6813: real time      2.7139
       DOS:  cpu time      0.0006: real time      0.0006
    CHARGE:  cpu time      0.0646: real time      0.0650
    MIXING:  cpu time      0.0009: real time      0.0009
    --------------------------------------------
      LOOP:  cpu time      3.6030: real time      3.6415

 eigenvalue-minimisations  :  3972
 total energy-change (2. order) : 0.2713225E-01  (-0.5559676E-01)
 number of electron     223.9999843 magnetization      -0.0082885
 augmentation part      124.8909584 magnetization       0.0559677

 Broyden mixing:
  rms(total) = 0.25883E+00    rms(broyden)= 0.25882E+00
  rms(prec ) = 0.36464E+00
  weight for this iteration     100.00

 eigenvalues of (default mixing * dielectric matrix)
  average eigenvalue GAMMA=   1.0160
  2.6160  1.3050  0.6300  0.6300  0.5335  0.3813

 Free energy of the ion-electron system (eV)
  ---------------------------------------------------
  alpha Z        PSCENC =      1545.49041624
  Ewald energy   TEWEN  =    -27552.22915297
  -Hartree energ DENC   =    -14122.48480810
  -exchange      EXHF   =         0.00000000
  -V(xc)+E(xc)   XCENC  =       827.84432780
  PAW double counting   =     39827.46465443   -40840.20766702
  entropy T*S    EENTRO =         0.00297860
  eigenvalues    EBANDS =     -2746.11374909
  atomic energy  EATOM  =     42985.99789090
  Solvation  Ediel_sol  =         0.00000000
  ---------------------------------------------------
  free energy    TOTEN  =       -74.23510923 eV

  energy without entropy =      -74.23808782  energy(sigma->0) =      -74.23610209


--------------------------------------------------------------------------------------------------------




--------------------------------------- Iteration      1(  12)  ---------------------------------------


    POTLOK:  cpu time      0.0273: real time      0.0278
    SETDIJ:  cpu time      0.8285: real time      0.8335
     EDDAV:  cpu time      2.7357: real time      2.7687
       DOS:  cpu time      0.0006: real time      0.0006
    CHARGE:  cpu time      0.0637: real time      0.0642
    MIXING:  cpu time      0.0011: real time      0.0011
    --------------------------------------------
      LOOP:  cpu time      3.6569: real time      3.6958

 eigenvalue-minimisations  :  4020
 total energy-change (2. order) : 0.2647113E-01  (-0.1662435E-01)
 number of electron     223.9999843 magnetization       0.0457012
 augmentation part      124.9758260 magnetization       0.0744364

 Broyden mixing:
  rms(total) = 0.15245E+00    rms(broyden)= 0.15244E+00
  rms(prec ) = 0.20771E+00
  weight for this iteration     100.00

 eigenvalues of (default mixing * dielectric matrix)
  average eigenvalue GAMMA=   1.0104
  2.8300  1.2327  0.6838  0.6838  0.7335  0.4988  0.4097

 Free energy of the ion-electron system (eV)
  ---------------------------------------------------
  alpha Z        PSCENC =      1545.49041624
  Ewald energy   TEWEN  =    -27552.22915297
  -Hartree energ DENC   =    -14122.36312365
  -exchange      EXHF   =         0.00000000
  -V(xc)+E(xc)   XCENC  =       827.82695508
  PAW double counting   =     39788.30111518   -40798.69297574
  entropy T*S    EENTRO =         0.00093040
  eigenvalues    EBANDS =     -2748.54069352
  atomic energy  EATOM  =     42985.99789090
  Solvation  Ediel_sol  =         0.00000000
  ---------------------------------------------------
  free energy    TOTEN  =       -74.20863810 eV

  energy without entropy =      -74.20956850  energy(sigma->0) =      -74.20894823


--------------------------------------------------------------------------------------------------------




--------------------------------------- Iteration      1(  13)  ---------------------------------------


    POTLOK:  cpu time      0.0275: real time      0.0280
    SETDIJ:  cpu time      0.8320: real time      0.8372
     EDDAV:  cpu time      2.9579: real time      2.9934
       DOS:  cpu time      0.0006: real time      0.0006
    CHARGE:  cpu time      0.0651: real time      0.0656
    MIXING:  cpu time      0.0010: real time      0.0010
    --------------------------------------------
      LOOP:  cpu time      3.8841: real time      3.9258

 eigenvalue-minimisations  :  4440
 total energy-change (2. order) : 0.7699191E-02  (-0.2490527E-02)
 number of electron     223.9999843 magnetization       0.0118828
 augmentation part      124.9558657 magnetization       0.0206802

 Broyden mixing:
  rms(total) = 0.11371E+00    rms(broyden)= 0.11371E+00
  rms(prec ) = 0.13909E+00
  weight for this iteration     100.00

 eigenvalues of (default mixing * dielectric matrix)
  average eigenvalue GAMMA=   1.0088
  2.6572  1.2635  1.2635  0.6748  0.6748  0.6600  0.4623  0.4142

 Free energy of the ion-electron system (eV)
  ---------------------------------------------------
  alpha Z        PSCENC =      1545.49041624
  Ewald energy   TEWEN  =    -27552.22915297
  -Hartree energ DENC   =    -14127.37336059
  -exchange      EXHF   =         0.00000000
  -V(xc)+E(xc)   XCENC  =       827.97385842
  PAW double counting   =     39777.24343994   -40786.87895471
  entropy T*S    EENTRO =         0.00036108
  eigenvalues    EBANDS =     -2744.42543721
  atomic energy  EATOM  =     42985.99789090
  Solvation  Ediel_sol  =         0.00000000
  ---------------------------------------------------
  free energy    TOTEN  =       -74.20093891 eV

  energy without entropy =      -74.20129999  energy(sigma->0) =      -74.20105927


--------------------------------------------------------------------------------------------------------




--------------------------------------- Iteration      1(  14)  ---------------------------------------


    POTLOK:  cpu time      0.0274: real time      0.0279
    SETDIJ:  cpu time      0.8325: real time      0.8377
     EDDAV:  cpu time      3.1775: real time      3.2146
       DOS:  cpu time      0.0005: real time      0.0005
    CHARGE:  cpu time      0.0643: real time      0.0647
    MIXING:  cpu time      0.0010: real time      0.0010
    --------------------------------------------
      LOOP:  cpu time      4.1032: real time      4.1464

 eigenvalue-minimisations  :  4860
 total energy-change (2. order) : 0.3341552E-02  (-0.5086724E-03)
 number of electron     223.9999843 magnetization       0.0097822
 augmentation part      124.9162378 magnetization       0.0078448

 Broyden mixing:
  rms(total) = 0.54455E-01    rms(broyden)= 0.54454E-01
  rms(prec ) = 0.64482E-01
  weight for this iteration     100.00

 eigenvalues of (default mixing * dielectric matrix)
  average eigenvalue GAMMA=   1.0032
  2.5424  1.7649  1.0189  1.0189  0.6348  0.6348  0.5432  0.4556  0.4155

 Free energy of the ion-electron system (eV)
  ---------------------------------------------------
  alpha Z        PSCENC =      1545.49041624
  Ewald energy   TEWEN  =    -27552.22915297
  -Hartree energ DENC   =    -14131.69743994
  -exchange      EXHF   =         0.00000000
  -V(xc)+E(xc)   XCENC  =       828.09637763
  PAW double counting   =     39765.47607248   -40774.11641905
  entropy T*S    EENTRO =        -0.00001462
  eigenvalues    EBANDS =     -2741.21532801
  atomic energy  EATOM  =     42985.99789090
  Solvation  Ediel_sol  =         0.00000000
  ---------------------------------------------------
  free energy    TOTEN  =       -74.19759735 eV

  energy without entropy =      -74.19758273  energy(sigma->0) =      -74.19759248


--------------------------------------------------------------------------------------------------------




--------------------------------------- Iteration      1(  15)  ---------------------------------------


    POTLOK:  cpu time      0.0232: real time      0.0282
    SETDIJ:  cpu time      0.8354: real time      0.8406
     EDDAV:  cpu time      2.6797: real time      2.7111
       DOS:  cpu time      0.0006: real time      0.0006
    CHARGE:  cpu time      0.0641: real time      0.0645
    MIXING:  cpu time      0.0010: real time      0.0010
    --------------------------------------------
      LOOP:  cpu time      3.6041: real time      3.6460

 eigenvalue-minimisations  :  3948
 total energy-change (2. order) : 0.3479366E-03  (-0.2654447E-03)
 number of electron     223.9999843 magnetization       0.0073133
 augmentation part      124.8951433 magnetization       0.0057127

 Broyden mixing:
  rms(total) = 0.29465E-01    rms(broyden)= 0.29465E-01
  rms(prec ) = 0.34816E-01
  weight for this iteration     100.00

 eigenvalues of (default mixing * dielectric matrix)
  average eigenvalue GAMMA=   1.0035
  2.4358  2.1343  1.0765  1.0765  0.6409  0.6409  0.5820  0.5820  0.4473  0.4187

 Free energy of the ion-electron system (eV)
  ---------------------------------------------------
  alpha Z        PSCENC =      1545.49041624
  Ewald energy   TEWEN  =    -27552.22915297
  -Hartree energ DENC   =    -14133.39942151
  -exchange      EXHF   =         0.00000000
  -V(xc)+E(xc)   XCENC  =       828.14605643
  PAW double counting   =     39764.09236572   -40772.32365912
  entropy T*S    EENTRO =         0.00023519
  eigenvalues    EBANDS =     -2739.97198028
  atomic energy  EATOM  =     42985.99789090
  Solvation  Ediel_sol  =         0.00000000
  ---------------------------------------------------
  free energy    TOTEN  =       -74.19724942 eV

  energy without entropy =      -74.19748461  energy(sigma->0) =      -74.19732781


--------------------------------------------------------------------------------------------------------




--------------------------------------- Iteration      1(  16)  ---------------------------------------


    POTLOK:  cpu time      0.0275: real time      0.0280
    SETDIJ:  cpu time      0.8327: real time      0.8374
     EDDAV:  cpu time      3.0695: real time      3.1070
       DOS:  cpu time      0.0006: real time      0.0006
    CHARGE:  cpu time      0.0639: real time      0.0644
    MIXING:  cpu time      0.0011: real time      0.0011
    --------------------------------------------
      LOOP:  cpu time      3.9952: real time      4.0383

 eigenvalue-minimisations  :  4668
 total energy-change (2. order) : 0.1889774E-03  (-0.3072579E-04)
 number of electron     223.9999843 magnetization       0.0021415
 augmentation part      124.8841924 magnetization       0.0008791

 Broyden mixing:
  rms(total) = 0.14602E-01    rms(broyden)= 0.14601E-01
  rms(prec ) = 0.16677E-01
  weight for this iteration     100.00

 eigenvalues of (default mixing * dielectric matrix)
  average eigenvalue GAMMA=   1.0159
  2.5257  2.3514  1.0825  1.0825  0.6791  0.6791  0.7218  0.7218  0.4224  0.4411
  0.4671

 Free energy of the ion-electron system (eV)
  ---------------------------------------------------
  alpha Z        PSCENC =      1545.49041624
  Ewald energy   TEWEN  =    -27552.22915297
  -Hartree energ DENC   =    -14134.51111333
  -exchange      EXHF   =         0.00000000
  -V(xc)+E(xc)   XCENC  =       828.17854420
  PAW double counting   =     39763.14694999   -40771.11599208
  entropy T*S    EENTRO =         0.00017454
  eigenvalues    EBANDS =     -2739.15477792
  atomic energy  EATOM  =     42985.99789090
  Solvation  Ediel_sol  =         0.00000000
  ---------------------------------------------------
  free energy    TOTEN  =       -74.19706044 eV

  energy without entropy =      -74.19723498  energy(sigma->0) =      -74.19711862


--------------------------------------------------------------------------------------------------------




--------------------------------------- Iteration      1(  17)  ---------------------------------------


    POTLOK:  cpu time      0.0277: real time      0.0282
    SETDIJ:  cpu time      0.8328: real time      0.8377
     EDDAV:  cpu time      3.2263: real time      3.2642
       DOS:  cpu time      0.0006: real time      0.0006
    CHARGE:  cpu time      0.0639: real time      0.0643
    MIXING:  cpu time      0.0012: real time      0.0012
    --------------------------------------------
      LOOP:  cpu time      4.1524: real time      4.1963

 eigenvalue-minimisations  :  4944
 total energy-change (2. order) : 0.3542904E-04  (-0.7108865E-05)
 number of electron     223.9999843 magnetization       0.0003533
 augmentation part      124.8793936 magnetization      -0.0005842

 Broyden mixing:
  rms(total) = 0.70255E-02    rms(broyden)= 0.70254E-02
  rms(prec ) = 0.75965E-02
  weight for this iteration     100.00

 eigenvalues of (default mixing * dielectric matrix)
  average eigenvalue GAMMA=   1.0672
  2.6452  2.2006  1.3913  1.3913  1.1501  0.8191  0.6572  0.6572  0.5791  0.4625
  0.4265  0.4265

 Free energy of the ion-electron system (eV)
  ---------------------------------------------------
  alpha Z        PSCENC =      1545.49041624
  Ewald energy   TEWEN  =    -27552.22915297
  -Hartree energ DENC   =    -14135.01798001
  -exchange      EXHF   =         0.00000000
  -V(xc)+E(xc)   XCENC  =       828.19340861
  PAW double counting   =     39763.29727409   -40771.13309939
  entropy T*S    EENTRO =         0.00016124
  eigenvalues    EBANDS =     -2738.79594372
  atomic energy  EATOM  =     42985.99789090
  Solvation  Ediel_sol  =         0.00000000
  ---------------------------------------------------
  free energy    TOTEN  =       -74.19702501 eV

  energy without entropy =      -74.19718626  energy(sigma->0) =      -74.19707876


--------------------------------------------------------------------------------------------------------




--------------------------------------- Iteration      1(  18)  ---------------------------------------


    POTLOK:  cpu time      0.0273: real time      0.0280
    SETDIJ:  cpu time      0.8331: real time      0.8385
     EDDAV:  cpu time      2.4506: real time      2.4793
       DOS:  cpu time      0.0007: real time      0.0007
    CHARGE:  cpu time      0.0647: real time      0.0652
    MIXING:  cpu time      0.0012: real time      0.0012
    --------------------------------------------
      LOOP:  cpu time      3.3777: real time      3.4129

 eigenvalue-minimisations  :  3528
 total energy-change (2. order) : 0.1646731E-05  (-0.2210070E-05)
 number of electron     223.9999843 magnetization      -0.0000481
 augmentation part      124.8784219 magnetization      -0.0003233

 Broyden mixing:
  rms(total) = 0.39669E-02    rms(broyden)= 0.39668E-02
  rms(prec ) = 0.45342E-02
  weight for this iteration     100.00

 eigenvalues of (default mixing * dielectric matrix)
  average eigenvalue GAMMA=   1.0963
  2.6532  2.2153  2.2153  1.3587  1.1488  0.8048  0.6569  0.6569  0.6137  0.6137
  0.4569  0.4210  0.4361

 Free energy of the ion-electron system (eV)
  ---------------------------------------------------
  alpha Z        PSCENC =      1545.49041624
  Ewald energy   TEWEN  =    -27552.22915297
  -Hartree energ DENC   =    -14135.09229433
  -exchange      EXHF   =         0.00000000
  -V(xc)+E(xc)   XCENC  =       828.19646901
  PAW double counting   =     39761.08563636   -40768.89792740
  entropy T*S    EENTRO =         0.00015729
  eigenvalues    EBANDS =     -2738.74821846
  atomic energy  EATOM  =     42985.99789090
  Solvation  Ediel_sol  =         0.00000000
  ---------------------------------------------------
  free energy    TOTEN  =       -74.19702336 eV

  energy without entropy =      -74.19718066  energy(sigma->0) =      -74.19707580


--------------------------------------------------------------------------------------------------------




--------------------------------------- Iteration      1(  19)  ---------------------------------------


    POTLOK:  cpu time      0.0274: real time      0.0279
    SETDIJ:  cpu time      0.8326: real time      0.8382
     EDDAV:  cpu time      2.1700: real time      2.1954
       DOS:  cpu time      0.0005: real time      0.0006
    CHARGE:  cpu time      0.0645: real time      0.0649
    MIXING:  cpu time      0.0012: real time      0.0013
    --------------------------------------------
      LOOP:  cpu time      3.0963: real time      3.1281

 eigenvalue-minimisations  :  2988
 total energy-change (2. order) : 0.4490532E-05  (-0.3069698E-06)
 number of electron     223.9999843 magnetization      -0.0000750
 augmentation part      124.8770551 magnetization      -0.0000899

 Broyden mixing:
  rms(total) = 0.14336E-02    rms(broyden)= 0.14336E-02
  rms(prec ) = 0.17074E-02
  weight for this iteration     100.00

 eigenvalues of (default mixing * dielectric matrix)
  average eigenvalue GAMMA=   1.1024
  2.6433  2.6433  2.2081  1.3309  1.1183  0.6620  0.6620  0.7952  0.7952  0.6843
  0.5792  0.4575  0.4241  0.4301

 Free energy of the ion-electron system (eV)
  ---------------------------------------------------
  alpha Z        PSCENC =      1545.49041624
  Ewald energy   TEWEN  =    -27552.22915297
  -Hartree energ DENC   =    -14135.21447965
  -exchange      EXHF   =         0.00000000
  -V(xc)+E(xc)   XCENC  =       828.20053837
  PAW double counting   =     39759.29508069   -40767.09149178
  entropy T*S    EENTRO =         0.00016424
  eigenvalues    EBANDS =     -2738.64598491
  atomic energy  EATOM  =     42985.99789090
  Solvation  Ediel_sol  =         0.00000000
  ---------------------------------------------------
  free energy    TOTEN  =       -74.19701887 eV

  energy without entropy =      -74.19718311  energy(sigma->0) =      -74.19707362


--------------------------------------------------------------------------------------------------------




--------------------------------------- Iteration      1(  20)  ---------------------------------------


    POTLOK:  cpu time      0.0274: real time      0.0279
    SETDIJ:  cpu time      0.8333: real time      0.8387
     EDDAV:  cpu time      1.6506: real time      1.6700
       DOS:  cpu time      0.0007: real time      0.0007
    CHARGE:  cpu time      0.0643: real time      0.0647
    MIXING:  cpu time      0.0013: real time      0.0014
    --------------------------------------------
      LOOP:  cpu time      2.5776: real time      2.6034

 eigenvalue-minimisations  :  2028
 total energy-change (2. order) : 0.1006876E-05  (-0.1276030E-06)
 number of electron     223.9999843 magnetization      -0.0000020
 augmentation part      124.8762225 magnetization       0.0000180

 Broyden mixing:
  rms(total) = 0.54904E-03    rms(broyden)= 0.54899E-03
  rms(prec ) = 0.62339E-03
  weight for this iteration     100.00

 eigenvalues of (default mixing * dielectric matrix)
  average eigenvalue GAMMA=   1.1212
  2.7254  2.7254  2.1281  1.2557  1.2557  1.0254  1.0254  0.8295  0.6603  0.6603
  0.6070  0.6070  0.4582  0.4243  0.4302

 Free energy of the ion-electron system (eV)
  ---------------------------------------------------
  alpha Z        PSCENC =      1545.49041624
  Ewald energy   TEWEN  =    -27552.22915297
  -Hartree energ DENC   =    -14135.27107721
  -exchange      EXHF   =         0.00000000
  -V(xc)+E(xc)   XCENC  =       828.20228515
  PAW double counting   =     39758.86626503   -40766.65724150
  entropy T*S    EENTRO =         0.00016602
  eigenvalues    EBANDS =     -2738.59656952
  atomic energy  EATOM  =     42985.99789090
  Solvation  Ediel_sol  =         0.00000000
  ---------------------------------------------------
  free energy    TOTEN  =       -74.19701787 eV

  energy without entropy =      -74.19718389  energy(sigma->0) =      -74.19707321


--------------------------------------------------------------------------------------------------------




--------------------------------------- Iteration      1(  21)  ---------------------------------------


    POTLOK:  cpu time      0.0270: real time      0.0276
    SETDIJ:  cpu time      0.8324: real time      0.8374
     EDDAV:  cpu time      1.5307: real time      1.5484
[...]
-66.739  -0.040  -0.031   8.418   0.012   0.010  -0.050  -0.032
 -0.040 -66.739  -0.031   0.012   8.418   0.010  -0.006  -0.032
 -0.031  -0.031 -66.739   0.010   0.010   8.418  -0.032  -0.006
  8.418   0.012   0.010   5.876  -0.004  -0.003   0.014   0.009
  0.012   8.418   0.010  -0.004   5.876  -0.003   0.001   0.009
  0.010   0.010   8.418  -0.003  -0.003   5.876   0.009   0.001
 -0.050  -0.006  -0.032   0.014   0.001   0.009  -5.936  -0.020
 -0.032  -0.032  -0.006   0.009   0.009   0.001  -0.020  -5.937
  0.017  -0.034   0.026  -0.005   0.010  -0.008   0.023  -0.015
 -0.006  -0.050  -0.032   0.001   0.014   0.009  -0.024  -0.020
  0.030   0.000  -0.045  -0.008  -0.000   0.013  -0.000   0.026
 -0.049  -0.006  -0.031   0.013   0.001   0.008  -6.521  -0.020
 -0.032  -0.032  -0.006   0.009   0.009   0.001  -0.020  -6.522
  0.016  -0.033   0.025  -0.005   0.009  -0.007   0.023  -0.015
 -0.006  -0.049  -0.031   0.001   0.013   0.008  -0.024  -0.020
  0.029   0.000  -0.044  -0.008  -0.000   0.013  -0.000   0.026
  0.008   0.008   0.012  -0.002  -0.002  -0.004   0.004   0.004
  0.016   0.016   0.025  -0.005  -0.005  -0.008   0.007   0.009
 pseudopotential strength for first ion, spin component:           2
-66.739  -0.040  -0.031   8.418   0.012   0.010  -0.050  -0.032
 -0.040 -66.739  -0.031   0.012   8.418   0.010  -0.006  -0.032
 -0.031  -0.031 -66.739   0.010   0.010   8.418  -0.032  -0.006
  8.418   0.012   0.010   5.876  -0.004  -0.003   0.014   0.009
  0.012   8.418   0.010  -0.004   5.876  -0.003   0.001   0.009
  0.010   0.010   8.418  -0.003  -0.003   5.876   0.009   0.001
 -0.050  -0.006  -0.032   0.014   0.001   0.009  -5.936  -0.020
 -0.032  -0.032  -0.006   0.009   0.009   0.001  -0.020  -5.937
  0.017  -0.034   0.026  -0.005   0.010  -0.008   0.023  -0.015
 -0.006  -0.050  -0.032   0.001   0.014   0.009  -0.024  -0.020
  0.030   0.000  -0.045  -0.008  -0.000   0.013  -0.000   0.026
 -0.049  -0.006  -0.031   0.013   0.001   0.008  -6.521  -0.020
 -0.032  -0.032  -0.006   0.009   0.009   0.001  -0.020  -6.522
  0.016  -0.033   0.025  -0.005   0.009  -0.007   0.023  -0.015
 -0.006  -0.049  -0.031   0.001   0.013   0.008  -0.024  -0.020
  0.029   0.000  -0.044  -0.008  -0.000   0.013  -0.000   0.026
  0.008   0.008   0.012  -0.002  -0.002  -0.004   0.004   0.004
  0.016   0.016   0.025  -0.005  -0.005  -0.008   0.007   0.009
 total augmentation occupancy for first ion, spin component:           1
  1.997   0.000   0.000  -0.016   0.000   0.000   0.006   0.004  -0.003  -0.001  -0.004  -0.006  -0.004   0.002   0.001   0.004
  0.000   1.997   0.000   0.000  -0.016   0.000  -0.001   0.004   0.005   0.006   0.000   0.001  -0.004  -0.005  -0.006  -0.000
  0.000   0.000   1.997   0.000   0.000  -0.016   0.004  -0.001  -0.004   0.004   0.007  -0.004   0.002   0.004  -0.004  -0.007
 -0.016   0.000   0.000   0.097  -0.006   0.001   0.058   0.047  -0.003   0.048  -0.015  -0.041  -0.036   0.001  -0.036   0.009
  0.000  -0.016   0.000  -0.006   0.097   0.001   0.048   0.047   0.014   0.058  -0.004  -0.036  -0.036  -0.008  -0.041   0.003
  0.000   0.000  -0.016   0.001   0.001   0.097   0.042   0.048  -0.006   0.042   0.011  -0.032  -0.036   0.002  -0.032  -0.003
  0.006  -0.001   0.004   0.058   0.048   0.042   3.500  -0.103   0.056  -0.159   0.000  -1.307   0.069  -0.015   0.130  -0.003
  0.004   0.004  -0.001   0.047   0.047   0.048  -0.103   3.478  -0.083  -0.103   0.143   0.069  -1.299   0.052   0.069  -0.091
 -0.003   0.005  -0.004  -0.003   0.014  -0.006   0.056  -0.083   4.108  -0.028   0.001  -0.014   0.051  -1.622   0.009   0.000
 -0.001   0.006   0.004   0.048   0.058   0.042  -0.159  -0.103  -0.028   3.500  -0.049   0.130   0.069   0.010  -1.307   0.012
 -0.004   0.000   0.007  -0.015  -0.004   0.011   0.000   0.143   0.001  -0.049   4.107  -0.003  -0.089   0.000   0.010  -1.623
 -0.006   0.001  -0.004  -0.041  -0.036  -0.032  -1.307   0.069  -0.014   0.130  -0.003   1.040  -0.036  -0.017  -0.098   0.004
 -0.004  -0.004   0.002  -0.036  -0.036  -0.036   0.069  -1.299   0.051   0.069  -0.089  -0.036   1.042  -0.028  -0.036   0.048
  0.002  -0.005   0.004   0.001  -0.008   0.002  -0.015   0.052  -1.622   0.010   0.000  -0.017  -0.028   1.119   0.005  -0.000
  0.001  -0.006  -0.004  -0.036  -0.041  -0.032   0.130   0.069   0.009  -1.307   0.010  -0.098  -0.036   0.005   1.040   0.017
  0.004  -0.000  -0.007   0.009   0.003  -0.003  -0.003  -0.091   0.000   0.012  -1.623   0.004   0.048  -0.000   0.017   1.120
 -0.022  -0.022  -0.033  -0.006  -0.006  -0.006  -0.070  -0.031  -0.009  -0.070   0.016   0.044  -0.000   0.007   0.044  -0.013
  0.010   0.010   0.015   0.001   0.001   0.001   0.033   0.041   0.000   0.033  -0.001  -0.005  -0.006   0.000  -0.005  -0.000
 total augmentation occupancy for first ion, spin component:           2
  0.000  -0.000   0.000   0.000  -0.000   0.000  -0.000  -0.000  -0.000   0.000  -0.000   0.000   0.000   0.000  -0.000   0.000
 -0.000   0.000   0.000  -0.000   0.000   0.000   0.000  -0.000   0.000  -0.000   0.000  -0.000   0.000  -0.000   0.000  -0.000
  0.000   0.000   0.000  -0.000  -0.000   0.000   0.000   0.000  -0.000   0.000   0.000  -0.000  -0.000   0.000  -0.000  -0.000
  0.000  -0.000  -0.000  -0.000  -0.000  -0.000   0.000  -0.000  -0.000  -0.000  -0.000  -0.000  -0.000   0.000   0.000   0.000
 -0.000   0.000  -0.000  -0.000  -0.000  -0.000  -0.000  -0.000   0.000   0.000   0.000   0.000  -0.000  -0.000  -0.000  -0.000
  0.000   0.000   0.000  -0.000  -0.000  -0.000   0.000  -0.000  -0.000   0.000   0.000  -0.000   0.000   0.000  -0.000  -0.000
 -0.000   0.000   0.000   0.000  -0.000   0.000   0.000   0.000  -0.000   0.000   0.000  -0.000  -0.000   0.000  -0.000  -0.000
 -0.000  -0.000   0.000  -0.000  -0.000  -0.000   0.000   0.000   0.000   0.000  -0.000  -0.000   0.000  -0.000  -0.000   0.000
 -0.000   0.000  -0.000  -0.000   0.000  -0.000  -0.000   0.000   0.000   0.000   0.000   0.000  -0.000   0.000  -0.000  -0.000
  0.000  -0.000   0.000  -0.000   0.000   0.000   0.000   0.000   0.000   0.000   0.000  -0.000  -0.000  -0.000  -0.000  -0.000
 -0.000   0.000   0.000  -0.000   0.000   0.000   0.000  -0.000   0.000   0.000   0.000  -0.000   0.000  -0.000  -0.000   0.000
  0.000  -0.000  -0.000  -0.000   0.000  -0.000  -0.000  -0.000   0.000  -0.000  -0.000  -0.000   0.000  -0.000   0.000   0.000
  0.000   0.000  -0.000  -0.000  -0.000   0.000  -0.000   0.000  -0.000  -0.000   0.000   0.000  -0.000   0.000   0.000  -0.000
  0.000  -0.000   0.000   0.000  -0.000   0.000   0.000  -0.000   0.000  -0.000  -0.000  -0.000   0.000  -0.000  -0.000   0.000
 -0.000   0.000  -0.000   0.000  -0.000  -0.000  -0.000  -0.000  -0.000  -0.000  -0.000   0.000   0.000  -0.000  -0.000   0.000
  0.000  -0.000  -0.000   0.000  -0.000  -0.000  -0.000   0.000  -0.000  -0.000   0.000   0.000  -0.000   0.000   0.000  -0.000
  0.000   0.000  -0.000   0.000   0.000  -0.000   0.000   0.000  -0.000   0.000   0.000   0.000  -0.000   0.000   0.000  -0.000
 -0.000  -0.000   0.000  -0.000  -0.000   0.000  -0.000  -0.000   0.000  -0.000  -0.000  -0.000   0.000   0.000  -0.000  -0.000


------------------------ aborting loop because EDIFF is reached ----------------------------------------





 total charge

# of ion       s       p       d       f       tot
--------------------------------------------------
    1        0.295   6.160   8.893   0.000  15.347
    2        0.295   6.160   8.893   0.000  15.347
    3        0.295   6.160   8.893   0.000  15.347
    4        0.295   6.160   8.893   0.000  15.347
    5        0.295   6.160   8.893   0.000  15.347
    6        0.295   6.160   8.893   0.000  15.347
    7        0.295   6.160   8.893   0.000  15.347
    8        0.295   6.160   8.893   0.000  15.347
    9        0.256   6.158   8.893   0.000  15.308
   10        0.489   0.444   8.519   0.000   9.452
   11        0.489   0.444   8.519   0.000   9.452
   12        0.462   0.400   8.532   0.000   9.394
   13        0.448   0.463   8.520   0.000   9.431
   14        0.448   0.463   8.520   0.000   9.431
   15        0.511   0.484   8.644   0.000   9.639
   16        2.268   6.461   1.079   0.070   9.877
--------------------------------------------------
tot          7.730  64.592 132.370   0.070 204.762



 magnetization (x)

# of ion       s       p       d       f       tot
--------------------------------------------------
    1       -0.000   0.000  -0.000   0.000  -0.000
    2       -0.000   0.000  -0.000   0.000  -0.000
    3       -0.000   0.000  -0.000   0.000  -0.000
    4       -0.000   0.000  -0.000   0.000  -0.000
    5       -0.000   0.000  -0.000   0.000  -0.000
    6       -0.000   0.000  -0.000   0.000  -0.000
    7       -0.000   0.000  -0.000   0.000  -0.000
    8       -0.000   0.000  -0.000   0.000  -0.000
    9       -0.000   0.000  -0.000   0.000  -0.000
   10        0.000  -0.000   0.000   0.000   0.000
   11        0.000  -0.000   0.000   0.000   0.000
   12        0.000   0.000   0.000   0.000   0.000
   13        0.000  -0.000   0.000   0.000   0.000
   14        0.000  -0.000   0.000   0.000   0.000
   15       -0.000   0.000  -0.000   0.000  -0.000
   16        0.000  -0.000  -0.000  -0.000  -0.000
--------------------------------------------------
tot          0.000  -0.000  -0.000  -0.000  -0.000
 
    CHARGE:  cpu time      0.0635: real time      0.0639
    FORLOC:  cpu time      0.0012: real time      0.0012
    FORNL :  cpu time      0.4468: real time      0.4524
    STRESS:  cpu time      1.3416: real time      1.3598
    FORCOR:  cpu time      0.0232: real time      0.0234
    FORHAR:  cpu time      0.0031: real time      0.0032
    MIXING:  cpu time      0.0012: real time      0.0013
    OFIELD:  cpu time      0.0003: real time      0.0004

  FORCE on cell =-STRESS in cart. coord.  units (eV):
  Direction    XX          YY          ZZ          XY          YZ          ZX
  --------------------------------------------------------------------------------------
  Alpha Z  1545.49042  1545.49042  1545.49042
  Ewald   -8825.79671 -9363.25605 -9363.25605     0.00000     0.00000    -0.00000
  Hartree  5061.07498  4537.14068  4537.14068    -0.00000    -0.00000    -0.00000
  E(xc)   -1563.82773 -1563.85625 -1563.85625     0.00000     0.00000     0.00000
  Local    -330.02737   731.85684   731.85684     0.00000    -0.00000     0.00000
  n-local  -887.17909  -885.87976  -891.96741     0.45762    -2.00642    -4.03422
  augment  2142.72760  2143.03767  2143.03767     0.00000    -0.00000    -0.00000
  Kinetic  2857.73372  2856.42479  2860.72767     0.22421    -3.33499    -5.39080
  Fock        0.00000     0.00000     0.00000     0.00000     0.00000     0.00000
  -------------------------------------------------------------------------------------
  Total       0.19581     0.06594     0.06594     0.00000     0.00000    -0.00000
  in kB       1.39240     0.46891     0.46891     0.00000     0.00000    -0.00000
  external pressure =        0.78 kB  Pullay stress =        0.00 kB


 VOLUME and BASIS-vectors are now :
 -----------------------------------------------------------------------------
  energy-cutoff  :      520.00
  volume of cell :      225.31
      direct lattice vectors                 reciprocal lattice vectors
     6.009942045  0.000000000  0.000000000     0.166390956  0.000000000  0.000000000
     0.000000000  6.122923891  0.000000000     0.000000000  0.163320665  0.000000000
     0.000000000 -0.000000000  6.122923891     0.000000000 -0.000000000  0.163320665

  length of vectors
     6.009942045  6.122923891  6.122923891     0.166390956  0.163320665  0.163320665


 FORCES acting on ions
    electron-ion (+dipol)            ewald-force                    non-local-force                 convergence-correction
 -----------------------------------------------------------------------------------------------
   0.444E+02 -.322E+03 -.322E+03   -.463E+02 0.320E+03 0.320E+03   0.200E+01 0.132E+01 0.132E+01   0.834E-03 0.800E-03 0.800E-03
   0.444E+02 -.322E+03 0.322E+03   -.463E+02 0.320E+03 -.320E+03   0.200E+01 0.132E+01 -.132E+01   0.834E-03 0.800E-03 -.800E-03
   0.444E+02 0.322E+03 -.322E+03   -.463E+02 -.320E+03 0.320E+03   0.200E+01 -.132E+01 0.132E+01   0.834E-03 -.800E-03 0.800E-03
   0.444E+02 0.322E+03 0.322E+03   -.463E+02 -.320E+03 -.320E+03   0.200E+01 -.132E+01 -.132E+01   0.834E-03 -.800E-03 -.800E-03
   -.444E+02 -.322E+03 -.322E+03   0.463E+02 0.320E+03 0.320E+03   -.200E+01 0.132E+01 0.132E+01   -.834E-03 0.800E-03 0.800E-03
   -.444E+02 -.322E+03 0.322E+03   0.463E+02 0.320E+03 -.320E+03   -.200E+01 0.132E+01 -.132E+01   -.834E-03 0.800E-03 -.800E-03
   -.444E+02 0.322E+03 -.322E+03   0.463E+02 -.320E+03 0.320E+03   -.200E+01 -.132E+01 0.132E+01   -.834E-03 -.800E-03 0.800E-03
   -.444E+02 0.322E+03 0.322E+03   0.463E+02 -.320E+03 -.320E+03   -.200E+01 -.132E+01 -.132E+01   -.834E-03 -.800E-03 -.800E-03
   0.199E-11 -.767E-11 -.656E-11   0.101E-12 0.277E-12 0.114E-12   -.387E-26 -.199E-24 -.271E-24   0.103E-12 -.111E-12 -.595E-13
   0.155E-12 0.465E-11 -.542E-11   0.190E-12 0.117E-12 -.775E-13   0.222E-23 0.310E-24 -.492E-23   0.113E-12 0.518E-13 -.275E-13
   0.117E-12 -.934E-12 0.216E-11   -.385E-13 0.100E-13 -.109E-14   0.202E-23 -.103E-23 0.140E-24   0.128E-12 -.289E-13 -.532E-13
   0.601E-12 0.531E-11 0.581E-12   -.620E-13 -.120E-12 -.518E-14   -.660E-25 0.158E-24 -.550E-25   -.107E-12 0.737E-14 -.184E-13
   0.599E-12 -.659E-12 0.141E-11   -.382E-12 0.550E-13 0.596E-13   -.336E-26 0.117E-23 -.570E-24   -.101E-12 0.419E-16 0.785E-14
   0.601E-12 0.135E-12 0.276E-13   -.510E-12 0.608E-13 0.226E-12   0.579E-25 -.270E-24 -.733E-24   -.109E-12 -.411E-13 -.468E-13
   0.530E-12 0.755E-13 -.435E-11   -.400E-13 -.113E-12 -.233E-13   0.150E-25 -.418E-23 -.635E-23   -.778E-13 -.331E-13 0.374E-13
   0.862E-13 0.962E-13 0.407E-11   -.196E-12 -.201E-12 -.124E-12   -.158E-24 -.203E-25 -.653E-24   0.108E-12 0.393E-13 -.511E-13
 -----------------------------------------------------------------------------------------------
   0.548E-10 0.122E-09 0.166E-09   0.283E-13 -.254E-12 -.144E-14   -.133E-14 -.222E-15 -.134E-22   0.512E-12 0.338E-12 -.165E-11
 
 
 POSITION                                       TOTAL-FORCE (eV/Angst)
 -----------------------------------------------------------------------------------
      5.97429      6.03370      6.03370         0.062971     -0.004950     -0.004950
      5.97429      6.03370      3.15069         0.062971     -0.004950      0.004950
      5.97429      3.15069      6.03370         0.062971      0.004950     -0.004950
      5.97429      3.15069      3.15069         0.062971      0.004950      0.004950
      3.04063      6.03370      6.03370        -0.062971     -0.004950     -0.004950
      3.04063      6.03370      3.15069        -0.062971     -0.004950      0.004950
      3.04063      3.15069      6.03370        -0.062971      0.004950     -0.004950
      3.04063      3.15069      3.15069        -0.062971      0.004950      0.004950
      1.50249      4.59219      4.59219         0.000000     -0.000000     -0.000000
      1.50249      1.53073      4.59219         0.000000     -0.000000     -0.000000
      1.50249      4.59219      1.53073         0.000000      0.000000      0.000000
      4.50746      1.53073      1.53073         0.000000     -0.000000      0.000000
      4.50746      1.53073      4.59219         0.000000      0.000000     -0.000000
      4.50746      4.59219      1.53073         0.000000     -0.000000     -0.000000
      4.50746      4.59219      4.59219         0.000000      0.000000     -0.000000
      1.50249      1.53073      1.53073         0.000000      0.000000     -0.000000
 -----------------------------------------------------------------------------------
    total drift:                                0.000000      0.000000      0.000000


--------------------------------------------------------------------------------------------------------



  FREE ENERGIE OF THE ION-ELECTRON SYSTEM (eV)
  ---------------------------------------------------
  free  energy   TOTEN  =       -74.19701776 eV

  energy  without entropy=      -74.19718413  energy(sigma->0) =      -74.19707322
 


--------------------------------------------------------------------------------------------------------


    POTLOK:  cpu time      0.8562: real time      0.8613


--------------------------------------------------------------------------------------------------------


 stress matrix after NEB project (eV)
      0.19581      0.00000     -0.00000
      0.00000      0.06594      0.00000
      0.00000      0.00000      0.06594
  FORCES: max atom, RMS     0.063359    0.044802
  FORCE total and by dimension    0.179206    0.062971
  Stress total and by dimension    0.216886    0.195813
     LOOP+:  cpu time     76.5518: real time     77.9547
    4ORBIT:  cpu time      0.0000: real time      0.0000



 total charge

# of ion       s       p       d       f       tot
--------------------------------------------------
    1        0.295   6.160   8.893   0.000  15.347
    2        0.295   6.160   8.893   0.000  15.347
    3        0.295   6.160   8.893   0.000  15.347
    4        0.295   6.160   8.893   0.000  15.347
    5        0.295   6.160   8.893   0.000  15.347
    6        0.295   6.160   8.893   0.000  15.347
    7        0.295   6.160   8.893   0.000  15.347
    8        0.295   6.160   8.893   0.000  15.347
    9        0.256   6.158   8.893   0.000  15.308
   10        0.489   0.444   8.519   0.000   9.452
   11        0.489   0.444   8.519   0.000   9.452
   12        0.462   0.400   8.532   0.000   9.394
   13        0.448   0.463   8.520   0.000   9.431
   14        0.448   0.463   8.520   0.000   9.431
   15        0.511   0.484   8.644   0.000   9.639
   16        2.268   6.461   1.079   0.070   9.877
--------------------------------------------------
tot          7.730  64.592 132.370   0.070 204.762



 magnetization (x)

# of ion       s       p       d       f       tot
--------------------------------------------------
    1       -0.000   0.000  -0.000   0.000  -0.000
    2       -0.000   0.000  -0.000   0.000  -0.000
    3       -0.000   0.000  -0.000   0.000  -0.000
    4       -0.000   0.000  -0.000   0.000  -0.000
    5       -0.000   0.000  -0.000   0.000  -0.000
    6       -0.000   0.000  -0.000   0.000  -0.000
    7       -0.000   0.000  -0.000   0.000  -0.000
    8       -0.000   0.000  -0.000   0.000  -0.000
    9       -0.000   0.000  -0.000   0.000  -0.000
   10        0.000  -0.000   0.000   0.000   0.000
   11        0.000  -0.000   0.000   0.000   0.000
   12        0.000   0.000   0.000   0.000   0.000
   13        0.000  -0.000   0.000   0.000   0.000
   14        0.000  -0.000   0.000   0.000   0.000
   15       -0.000   0.000  -0.000   0.000  -0.000
   16        0.000  -0.000  -0.000  -0.000  -0.000
--------------------------------------------------
tot          0.000  -0.000  -0.000  -0.000  -0.000
 

 total amount of memory used by VASP MPI-rank0    46110. kBytes
=======================================================================

   base      :      30000. kBytes
   nonlr-proj:       6857. kBytes
   fftplans  :       1457. kBytes
   grid      :       3879. kBytes
   one-center:        240. kBytes
   wavefun   :       3677. kBytes
 
  
  
 General timing and accounting informations for this job:
 ========================================================
  
                  Total CPU time used (sec):       81.461
                            User time (sec):       78.690
                          System time (sec):        2.771
                         Elapsed time (sec):       89.275
  
                   Maximum memory used (kb):      436080.
                   Average memory used (kb):          N/A
  
                          Minor page faults:        33256
                          Major page faults:         1920
                 Voluntary context switches:         7115
