 vasp.6.4.3 19Mar24 (build Jul 01 2024 12:12:31) complex                        
  
 executed on             LinuxIFC date 2025.12.20  22:22:27
 running   48 mpi-ranks, on    1 nodes
 distrk:  each k-point on   48 cores,    1 groups
 distr:  one band on NCORE=   4 cores,   12 groups


--------------------------------------------------------------------------------------------------------


 INCAR:
   SYSTEM = CuPd_B2 full cell relaxation
   ALGO = Fast
   EDIFF = 1e-06
   EDIFFG = -0.001
   ENCUT = 520.0
   IBRION = 2
   ISIF = 3
   ISMEAR = 1
   ISPIN = 2
   LASPH = True
   LMAXMIX = 4
   LORBIT = 11
   LREAL = Auto
   LWAVE = False
   MAGMOM = 16*0.6
   NELM = 300
   NSW = 320
   PREC = Accurate
   SIGMA = 0.2
   NCORE = 4

 POTCAR:    PAW_PBE Cu_pv 06Sep2000               
 POTCAR:    PAW_PBE Pd 04Jan2005                  
 POTCAR:    PAW_PBE Y_sv 25May2007                
 POTCAR:    PAW_PBE Cu_pv 06Sep2000               
   SHA256 =  cb7b504e2ea725fe1f25c85a9ac77d4012ce94cd394135b722c4e25ec297f1cb Cu_pv/POTCAR          
   COPYR  = (c) Copyright 06Sep2000 Georg Kresse                                                    
   COPYR  = This file is part of the software VASP. Any use, copying, and all other rights are regul
   COPYR  = If you do not have a valid VASP license, you may not use, copy or distribute this file. 
   VRHFIN =Cu: d10 p1                                                                               
   LEXCH  = PE                                                                                      
   EATOM  =  4120.1201 eV,  302.8203 Ry                                                             
                                                                                                    
   TITEL  = PAW_PBE Cu_pv 06Sep2000                                                                 
   LULTRA =        F    use ultrasoft PP ?                                                          
   IUNSCR =        1    unscreen: 0-lin 1-nonlin 2-no                                               
   RPACOR =    1.500    partial core radius                                                         
   POMASS =   63.546; ZVAL   =   17.000    mass and valenz                                          
   RCORE  =    2.000    outmost cutoff radius                                                       
   RWIGS  =    2.000; RWIGS  =    1.058    wigner-seitz radius (au A)                               
   ENMAX  =  368.648; ENMIN  =  276.486 eV                                                          
   RCLOC  =    1.304    cutoff for local pot                                                        
   LCOR   =        T    correct aug charges                                                         
   LPAW   =        T    paw PP                                                                      
   EAUG   =  758.233                                                                                
   DEXC   =    0.000                                                                                
   RMAX   =    2.046    core radius for proj-oper                                                   
   RAUG   =    1.300    factor for augmentation sphere                                              
   RDEP   =    2.025    radius for radial grids                                                     
   RDEPT  =    1.558    core radius for aug-charge                                                  
                                                                                                    
   Atomic configuration                                                                             
    8 entries                                                                                       
     n  l   j            E        occ.                                                              
     1  0  0.50     -8850.2467   2.0000                                                             
     2  0  0.50     -1062.3498   2.0000                                                             
     2  1  1.50      -916.8226   6.0000                                                             
     3  0  0.50      -114.6929   2.0000                                                             
     3  1  1.50       -72.1325   6.0000                                                             
     3  2  2.50        -5.0394  10.0000                                                             
     4  0  0.50        -4.6097   1.0000                                                             
     4  3  2.50        -1.3606   0.0000                                                             
   Description                                                                                      
     l       E           TYP  RCUT    TYP  RCUT                                                     
     1    -72.1324777     23  1.700                                                                 
     1     -1.3605826     23  1.700                                                                 
     2     -5.0393776     23  2.000                                                                 
     2     -6.3999602     23  2.000                                                                 
     0     -4.6097062     23  1.800                                                                 
     0     14.1620818     23  1.800                                                                 
  local pseudopotential read in
  partial core-charges read in
  partial kinetic energy density read in
  atomic valenz-charges read in
  non local Contribution for L=           1  read in
    real space projection operators read in
  non local Contribution for L=           1  read in
    real space projection operators read in
  non local Contribution for L=           2  read in
    real space projection operators read in
  non local Contribution for L=           2  read in
    real space projection operators read in
  non local Contribution for L=           0  read in
    real space projection operators read in
  non local Contribution for L=           0  read in
    real space projection operators read in
    PAW grid and wavefunctions read in
 
   number of l-projection  operators is LMAX  =           6
   number of lm-projection operators is LMMAX =          18
 
 POTCAR:    PAW_PBE Pd 04Jan2005                  
   SHA256 =  dd6f6f02930356371984e2b707ff5e456046761dc76b07c1eba30abd15eb3c39 Pd/POTCAR             
   COPYR  = (c) Copyright 04Jan2005 Georg Kresse                                                    
   COPYR  = This file is part of the software VASP. Any use, copying, and all other rights are regul
   COPYR  = If you do not have a valid VASP license, you may not use, copy or distribute this file. 
   VRHFIN =Pd : s1 d9                                                                               
   LEXCH  = PE                                                                                      
   EATOM  =   809.7530 eV,   59.5152 Ry                                                             
                                                                                                    
   TITEL  = PAW_PBE Pd 04Jan2005                                                                    
   LULTRA =        F    use ultrasoft PP ?                                                          
   IUNSCR =        1    unscreen: 0-lin 1-nonlin 2-no                                               
   RPACOR =    2.000    partial core radius                                                         
   POMASS =  106.420; ZVAL   =   10.000    mass and valenz                                          
   RCORE  =    2.600    outmost cutoff radius                                                       
   RWIGS  =    2.710; RWIGS  =    1.434    wigner-seitz radius (au A)                               
   ENMAX  =  250.925; ENMIN  =  188.194 eV                                                          
   ICORE  =        3    local potential                                                             
   LCOR   =        T    correct aug charges                                                         
   LPAW   =        T    paw PP                                                                      
   EAUG   =  416.230                                                                                
   DEXC   =    0.000                                                                                
   RMAX   =    2.653    core radius for proj-oper                                                   
   RAUG   =    1.300    factor for augmentation sphere                                              
   RDEP   =    2.734    radius for radial grids                                                     
   RDEPT  =    2.103    core radius for aug-charge                                                  
                                                                                                    
   Atomic configuration                                                                             
   12 entries                                                                                       
     n  l   j            E        occ.                                                              
     1  0  0.50    -24164.6631   2.0000                                                             
     2  0  0.50     -3530.9218   2.0000                                                             
     2  1  1.50     -3165.6822   6.0000                                                             
     3  0  0.50      -639.4577   2.0000                                                             
     3  1  1.50      -519.4532   6.0000                                                             
     3  2  2.50      -328.9757  10.0000                                                             
     4  0  0.50       -88.7014   2.0000                                                             
     4  1  1.50       -54.4540   6.0000                                                             
     4  2  2.50        -6.6878   9.0000                                                             
     5  0  0.50        -4.3543   1.0000                                                             
     5  1  0.50        -1.3606   0.0000                                                             
     4  3  2.50        -1.3606   0.0000                                                             
   Description                                                                                      
     l       E           TYP  RCUT    TYP  RCUT                                                     
     2     -6.6878251     23  2.400                                                                 
     2     -8.0484077     23  2.400                                                                 
     0     -4.3542939     23  2.400                                                                 
     0      4.3406793     23  2.400                                                                 
     1     -4.0817478     23  2.600                                                                 
     1     15.8380318     23  2.600                                                                 
     3     -4.0817478     23  2.400                                                                 
  local pseudopotential read in
  partial core-charges read in
  partial kinetic energy density read in
  atomic valenz-charges read in
  non local Contribution for L=           2  read in
    real space projection operators read in
  non local Contribution for L=           2  read in
    real space projection operators read in
  non local Contribution for L=           0  read in
    real space projection operators read in
  non local Contribution for L=           0  read in
    real space projection operators read in
  non local Contribution for L=           1  read in
    real space projection operators read in
  non local Contribution for L=           1  read in
    real space projection operators read in
    PAW grid and wavefunctions read in
 
   number of l-projection  operators is LMAX  =           6
   number of lm-projection operators is LMMAX =          18
 
 POTCAR:    PAW_PBE Y_sv 25May2007                
   SHA256 =  5e7f7496c6fa99024fec326bcd60dcee8ff7e886f9613d31da35c685a538a036 Y_sv/POTCAR           
   COPYR  = (c) Copyright 25May2007 Georg Kresse                                                    
   COPYR  = This file is part of the software VASP. Any use, copying, and all other rights are regul
   COPYR  = If you do not have a valid VASP license, you may not use, copy or distribute this file. 
   VRHFIN =Y: 4s4p5s4d                                                                              
   LEXCH  = PE                                                                                      
   EATOM  =  1046.9140 eV,   76.9460 Ry                                                             
                                                                                                    
   TITEL  = PAW_PBE Y_sv 25May2007                                                                  
   LULTRA =        F    use ultrasoft PP ?                                                          
   IUNSCR =        1    unscreen: 0-lin 1-nonlin 2-no                                               
   RPACOR =    2.200    partial core radius                                                         
   POMASS =   88.906; ZVAL   =   11.000    mass and valenz                                          
   RCORE  =    2.800    outmost cutoff radius                                                       
   RWIGS  =    3.430; RWIGS  =    1.815    wigner-seitz radius (au A)                               
   ENMAX  =  202.626; ENMIN  =  151.970 eV                                                          
   RCLOC  =    2.212    cutoff for local pot                                                        
   LCOR   =        T    correct aug charges                                                         
   LPAW   =        T    paw PP                                                                      
   EAUG   =  470.889                                                                                
   DEXC   =    0.000                                                                                
   RMAX   =    2.863    core radius for proj-oper                                                   
   RAUG   =    1.300    factor for augmentation sphere                                              
   RDEP   =    2.926    radius for radial grids                                                     
   RDEPT  =    2.280    core radius for aug-charge                                                  
                                                                                                    
   Atomic configuration                                                                             
   11 entries                                                                                       
     n  l   j            E        occ.                                                              
     1  0  0.50    -16863.0720   2.0000                                                             
     2  0  0.50     -2309.2881   2.0000                                                             
     2  1  1.50     -2055.5536   6.0000                                                             
     3  0  0.50      -367.1837   2.0000                                                             
     3  1  1.50      -284.8912   6.0000                                                             
     3  2  2.50      -149.4324  10.0000                                                             
     4  0  0.50       -46.3345   2.0000                                                             
     5  0  0.50        -3.6387   1.0000                                                             
     4  1  1.50       -26.3769   6.0000                                                             
     4  2  2.50        -1.6291   2.0000                                                             
     4  3  2.50        -1.3606   0.0000                                                             
   Description                                                                                      
     l       E           TYP  RCUT    TYP  RCUT                                                     
     0    -46.3344714     23  2.600                                                                 
     0     -3.6387002     23  2.700                                                                 
     1    -26.3769044     23  2.600                                                                 
     1    -27.7374870     23  2.600                                                                 
     2     -1.6291019     23  2.600                                                                 
     2      0.1354037     23  2.600                                                                 
     3     -1.3605826     23  2.800                                                                 
  local pseudopotential read in
  partial core-charges read in
  partial kinetic energy density read in
  atomic valenz-charges read in
  non local Contribution for L=           0  read in
    real space projection operators read in
  non local Contribution for L=           0  read in
    real space projection operators read in
  non local Contribution for L=           1  read in
    real space projection operators read in
  non local Contribution for L=           1  read in
    real space projection operators read in
  non local Contribution for L=           2  read in
    real space projection operators read in
  non local Contribution for L=           2  read in
    real space projection operators read in
  non local Contribution for L=           3  read in
    real space projection operators read in
    PAW grid and wavefunctions read in
 
   number of l-projection  operators is LMAX  =           7
   number of lm-projection operators is LMMAX =          25
 
 Optimization of the real space projectors (new method)

 maximal supplied QI-value         = 18.90
 optimisation between [QCUT,QGAM] = [ 11.53, 23.24] = [ 37.21,151.29] Ry 
 Optimized for a Real-space Cutoff    1.36 Angstroem

   l    n(q)    QCUT    max X(q) W(low)/X(q) W(high)/X(q)  e(spline) 
   1      9    11.527     3.172    0.21E-04    0.38E-04    0.11E-06
   1      9    11.527     4.083    0.67E-04    0.79E-04    0.20E-06
   2      9    11.527    65.342    0.13E-03    0.28E-03    0.26E-06
   2      9    11.527    61.381    0.13E-03    0.29E-03    0.26E-06
   0      9    11.527    65.742    0.32E-04    0.21E-04    0.72E-07
   0      9    11.527    30.431    0.28E-04    0.19E-04    0.65E-07
 Optimization of the real space projectors (new method)

 maximal supplied QI-value         = 14.36
 optimisation between [QCUT,QGAM] = [ 11.63, 23.27] = [ 37.90,151.59] Ry 
 Optimized for a Real-space Cutoff    1.49 Angstroem

   l    n(q)    QCUT    max X(q) W(low)/X(q) W(high)/X(q)  e(spline) 
   2      9    11.633    59.108    0.81E-04    0.17E-04    0.26E-06
   2      9    11.633    58.101    0.82E-04    0.18E-04    0.27E-06
   0     10    11.633   102.235    0.26E-04    0.16E-04    0.21E-06
   0     10    11.633    58.388    0.23E-04    0.15E-04    0.20E-06
   1     10    11.633    22.191    0.10E-03    0.20E-03    0.14E-06
   1     10    11.633    15.590    0.86E-04    0.17E-03    0.12E-06
 Optimization of the real space projectors (new method)

 maximal supplied QI-value         = 13.42
 optimisation between [QCUT,QGAM] = [ 11.67, 23.35] = [ 38.16,152.62] Ry 
 Optimized for a Real-space Cutoff    1.68 Angstroem

   l    n(q)    QCUT    max X(q) W(low)/X(q) W(high)/X(q)  e(spline) 
   0     12    11.673    14.902    0.22E-04    0.24E-05    0.52E-07
   0     12    11.673     9.294    0.34E-04    0.58E-05    0.89E-07
   1     11    11.673    69.520    0.10E-04    0.47E-04    0.49E-06
   1     11    11.673    72.085    0.10E-04    0.48E-04    0.50E-06
   2     11    11.673    62.934    0.94E-04    0.14E-04    0.82E-06
   2     11    11.673    49.749    0.91E-04    0.13E-04    0.79E-06
   3     10    11.673     8.311    0.92E-04    0.21E-04    0.59E-06
  PAW_PBE Cu_pv 06Sep2000               :
 energy of atom  1       EATOM=-4120.1201
 kinetic energy error for atom=    0.0541 (will be added to EATOM!!)
  PAW_PBE Pd 04Jan2005                  :
 energy of atom  2       EATOM= -809.7530
 kinetic energy error for atom=    0.0045 (will be added to EATOM!!)
  PAW_PBE Y_sv 25May2007                :
 energy of atom  3       EATOM=-1046.9140
 kinetic energy error for atom=    0.0008 (will be added to EATOM!!)
 
 
 POSCAR: Cu9 Pd6 Y1
  positions in direct lattice
  No initial velocities read in


 exchange-correlation table for PE
   RHO(1)=    0.500       N(1)  =     2000
   RHO(2)=  100.500       N(2)  =     4000

 VTST: version 4.1, (05/19/21)

 CHAIN: initializing optimizer
 
 OPT: Using VASP Conjugate-Gradient optimizer
 CHAIN: Read ICHAIN            0
 
 POSCAR: Cu9 Pd6 Y1
  positions in direct lattice
  No initial velocities read in
 


--------------------------------------------------------------------------------------------------------


 ion  position               nearest neighbor table
   1  0.000  0.000  0.000-  10 2.61  11 2.61  12 2.61  13 2.61  14 2.61  15 2.61  16 2.61
   2  0.000  0.000  0.500-  10 2.61  11 2.61  12 2.61  13 2.61  14 2.61  15 2.61  16 2.61
   3  0.000  0.500  0.000-  10 2.61  11 2.61  12 2.61  13 2.61  14 2.61  15 2.61  16 2.61
   4  0.000  0.500  0.500-  10 2.61  11 2.61  12 2.61  13 2.61  14 2.61  15 2.61  16 2.61
   5  0.500  0.000  0.000-  10 2.61  11 2.61  12 2.61  13 2.61  14 2.61  15 2.61  16 2.61
   6  0.500  0.000  0.500-  10 2.61  11 2.61  12 2.61  13 2.61  14 2.61  15 2.61  16 2.61
   7  0.500  0.500  0.000-  10 2.61  11 2.61  12 2.61  13 2.61  14 2.61  15 2.61  16 2.61
   8  0.500  0.500  0.500-  10 2.61  11 2.61  12 2.61  13 2.61  14 2.61  15 2.61  16 2.61
   9  0.250  0.750  0.750-
  10  0.250  0.250  0.750-   1 2.61   2 2.61   3 2.61   4 2.61   5 2.61   6 2.61   7 2.61   8 2.61
                            13 3.01  16 3.01  16 3.01  13 3.01
  11  0.250  0.750  0.250-   1 2.61   2 2.61   3 2.61   4 2.61   5 2.61   6 2.61   7 2.61   8 2.61
                            14 3.01  16 3.01  16 3.01  14 3.01
  12  0.750  0.250  0.250-   1 2.61   2 2.61   3 2.61   4 2.61   5 2.61   6 2.61   7 2.61   8 2.61
                            13 3.01  14 3.01  16 3.01  13 3.01  14 3.01  16 3.01
  13  0.750  0.250  0.750-   1 2.61   2 2.61   3 2.61   4 2.61   5 2.61   6 2.61   7 2.61   8 2.61
                            10 3.01  12 3.01  15 3.01  12 3.01  15 3.01  10 3.01
  14  0.750  0.750  0.250-   1 2.61   2 2.61   3 2.61   4 2.61   5 2.61   6 2.61   7 2.61   8 2.61
                            11 3.01  12 3.01  15 3.01  15 3.01  12 3.01  11 3.01
  15  0.750  0.750  0.750-   1 2.61   2 2.61   3 2.61   4 2.61   5 2.61   6 2.61   7 2.61   8 2.61
                            13 3.01  14 3.01  14 3.01  13 3.01
  16  0.250  0.250  0.250-   1 2.61   2 2.61   3 2.61   4 2.61   5 2.61   6 2.61   7 2.61   8 2.61
                            10 3.01  11 3.01  12 3.01  10 3.01  11 3.01  12 3.01
 
  LATTYP: Found a simple cubic cell.
 ALAT       =     6.0171019120
  
  Lattice vectors:
  
 A1 = (   6.0171019120,   0.0000000000,   0.0000000000)
 A2 = (   0.0000000000,   6.0171019120,   0.0000000000)
 A3 = (   0.0000000000,   0.0000000000,   6.0171019120)


Analysis of symmetry for initial positions (statically):
=====================================================================
 Subroutine PRICEL returns:
 Original cell was already a primitive cell.
 

 Routine SETGRP: Setting up the symmetry group for a 
 simple cubic supercell.


 Subroutine GETGRP returns: Found 16 space group operations
 (whereof  2 operations were pure point group operations)
 out of a pool of 48 trial point group operations.


The static configuration has the point symmetry C_1h.
 The point group associated with its full space group is D_4h.


Analysis of symmetry for dynamics (positions and initial velocities):
=====================================================================
 Subroutine PRICEL returns:
 Original cell was already a primitive cell.
 

 Routine SETGRP: Setting up the symmetry group for a 
 simple cubic supercell.


 Subroutine GETGRP returns: Found 16 space group operations
 (whereof  2 operations were pure point group operations)
 out of a pool of 48 trial point group operations.


The dynamic configuration has the point symmetry C_1h.
 The point group associated with its full space group is D_4h.


Analysis of structural, dynamic, and magnetic symmetry:
=====================================================================
 Subroutine PRICEL returns:
 Original cell was already a primitive cell.
 

 Routine SETGRP: Setting up the symmetry group for a 
 simple cubic supercell.


 Subroutine GETGRP returns: Found 16 space group operations
 (whereof  2 operations were pure point group operations)
 out of a pool of 48 trial point group operations.


The overall configuration has the point symmetry C_1h.
 The point group associated with its full space group is D_4h.


 Subroutine INISYM returns: Found 16 space group operations
 (whereof  2 operations are pure point group operations),
 and found     1 'primitive' translations


----------------------------------------------------------------------------------------

                                     Primitive cell                                     

  volume of cell :     217.8523

  direct lattice vectors                    reciprocal lattice vectors
     6.017101912  0.000000000  0.000000000     0.166192964  0.000000000  0.000000000
     0.000000000  6.017101912  0.000000000     0.000000000  0.166192964  0.000000000
     0.000000000  0.000000000  6.017101912     0.000000000  0.000000000  0.166192964

  length of vectors
     6.017101912  6.017101912  6.017101912     0.166192964  0.166192964  0.166192964

  position of ions in fractional coordinates (direct lattice)
     0.000000000  0.000000000  0.000000000
     0.000000000  0.000000000  0.500000000
     0.000000000  0.500000000  0.000000000
     0.000000000  0.500000000  0.500000000
     0.500000000  0.000000000  0.000000000
     0.500000000  0.000000000  0.500000000
     0.500000000  0.500000000  0.000000000
     0.500000000  0.500000000  0.500000000
     0.250000000  0.750000000  0.750000000
     0.250000000  0.250000000  0.750000000
     0.250000000  0.750000000  0.250000000
     0.750000000  0.250000000  0.250000000
     0.750000000  0.250000000  0.750000000
     0.750000000  0.750000000  0.250000000
     0.750000000  0.750000000  0.750000000
     0.250000000  0.250000000  0.250000000

  ion indices of the primitive-cell ions
   primitive index   ion index
                 1           1
                 2           2
                 3           3
                 4           4
                 5           5
                 6           6
                 7           7
                 8           8
                 9           9
                10          10
                11          11
                12          12
                13          13
                14          14
                15          15
                16          16

----------------------------------------------------------------------------------------

 
 
 KPOINTS: K-Spacing Value to Generate K-Mesh: 0.03

Automatic generation of k-mesh.
 Grid dimensions read from file:
 generate k-points for:    2    2    2

 Generating k-lattice:

  Cartesian coordinates                     Fractional coordinates (reciprocal lattice)
     0.083096482  0.000000000  0.000000000     0.500000000  0.000000000  0.000000000
     0.000000000  0.083096482  0.000000000     0.000000000  0.500000000  0.000000000
     0.000000000  0.000000000  0.083096482     0.000000000  0.000000000  0.500000000

  Length of vectors
     0.083096482  0.083096482  0.083096482

  Shift w.r.t. Gamma in fractional coordinates (k-lattice)
     0.500000000  0.500000000  0.500000000

 
 Subroutine IBZKPT returns following result:
 ===========================================
 
 Found      1 irreducible k-points:
 
 Following reciprocal coordinates:
            Coordinates               Weight
  0.250000  0.250000  0.250000      8.000000
 
 Following cartesian coordinates:
            Coordinates               Weight
  0.041548  0.041548  0.041548      8.000000
 


--------------------------------------------------------------------------------------------------------




 Dimension of arrays:
   k-points           NKPTS =      1   k-points in BZ     NKDIM =      1   number of bands    NBANDS=    144
   number of dos      NEDOS =    301   number of ions     NIONS =     16
   non local maximal  LDIM  =      7   non local SUM 2l+1 LMDIM =     25
   total plane-waves  NPLWV = 110592
   max r-space proj   IRMAX =  10061   max aug-charges    IRDMAX=  36792
   dimension x,y,z NGX =    48 NGY =   48 NGZ =   48
   dimension x,y,z NGXF=    96 NGYF=   96 NGZF=   96
   support grid    NGXF=    96 NGYF=   96 NGZF=   96
   ions per type =               9   6   1
   NGX,Y,Z   is equivalent  to a cutoff of  13.26, 13.26, 13.26 a.u.
   NGXF,Y,Z  is equivalent  to a cutoff of  26.52, 26.52, 26.52 a.u.

 SYSTEM =  CuPd_B2 full cell relaxation            
 POSCAR =  Cu9 Pd6 Y1                              

 Startparameter for this run:
   NWRITE =      2    write-flag & timer
   PREC   = accura    normal or accurate (medium, high low for compatibility)
   ISTART =      0    job   : 0-new  1-cont  2-samecut
   ICHARG =      2    charge: 1-file 2-atom 10-const
   ISPIN  =      2    spin polarized calculation?
   LNONCOLLINEAR =      F non collinear calculations
   LSORBIT =      F    spin-orbit coupling
   INIWAV =      1    electr: 0-lowe 1-rand  2-diag
   LASPH  =      T    aspherical Exc in radial PAW
 Electronic Relaxation 1
   ENCUT  =  520.0 eV  38.22 Ry    6.18 a.u.  11.19 11.19 11.19*2*pi/ulx,y,z
   ENINI  =  520.0     initial cutoff
   ENAUG  =  758.2 eV  augmentation charge cutoff
   NELM   =    300;   NELMIN=  2; NELMDL= -5     # of ELM steps 
   EDIFF  = 0.1E-05   stopping-criterion for ELM
   LREAL  =      T    real-space projection
   NLSPLINE    = F    spline interpolate recip. space projectors
   LCOMPAT=      F    compatible to vasp.4.4
   GGA_COMPAT  = T    GGA compatible to vasp.4.4-vasp.4.6
   LMAXPAW     = -100 max onsite density
   LMAXMIX     =    4 max onsite mixed and CHGCAR
   VOSKOWN=      0    Vosko Wilk Nusair interpolation
   ROPT   =   -0.00025  -0.00025  -0.00025
 Ionic relaxation
   EDIFFG = -.1E-02   stopping-criterion for IOM
   NSW    =    320    number of steps for IOM
   NBLOCK =      1;   KBLOCK =    320    inner block; outer block 
   IBRION =      2    ionic relax: 0-MD 1-quasi-New 2-CG
   NFREE  =      1    steps in history (QN), initial steepest desc. (CG)
   ISIF   =      3    stress and relaxation
   IWAVPR =     11    prediction:  0-non 1-charg 2-wave 3-comb
   ISYM   =      2    0-nonsym 1-usesym 2-fastsym
   LCORR  =      T    Harris-Foulkes like correction to forces

   POTIM  = 0.5000    time-step for ionic-motion
   TEIN   =    0.0    initial temperature
   TEBEG  =    0.0;   TEEND  =   0.0 temperature during run
   SMASS  =  -3.00    Nose mass-parameter (am)
   estimated Nose-frequenzy (Omega)   =  0.10E-29 period in steps = 0.13E+47 mass=  -0.827E-27a.u.
   SCALEE = 1.0000    scale energy and forces
   NPACO  =    256;   APACO  = 10.0  distance and # of slots for P.C.
   PSTRESS=    0.0 pullay stress

  Mass of Ions in am
   POMASS =  63.55106.42 88.91
  Ionic Valenz
   ZVAL   =  17.00 10.00 11.00
  Atomic Wigner-Seitz radii
   RWIGS  =  -1.00 -1.00 -1.00
  virtual crystal weights 
   VCA    =   1.00  1.00  1.00
   NELECT =     224.0000    total number of electrons
   NUPDOWN=      -1.0000    fix difference up-down

 DOS related values:
   EMIN   =  10.00;   EMAX   =-10.00  energy-range for DOS
   EFERMI =   0.00;   METHOD = LEGACY      
   ISMEAR =     1;   SIGMA  =   0.20  broadening in eV -4-tet -1-fermi 0-gaus

 Electronic relaxation 2 (details)
   IALGO  =     68    algorithm
   LDIAG  =      T    sub-space diagonalisation (order eigenvalues)
   LSUBROT=      F    optimize rotation matrix (better conditioning)
   TURBO    =      0    0=normal 1=particle mesh
   IRESTART =      0    0=no restart 2=restart with 2 vectors
   NREBOOT  =      0    no. of reboots
   NMIN     =      0    reboot dimension
   EREF     =   0.00    reference energy to select bands
   IMIX   =      4    mixing-type and parameters
     AMIX     =   0.40;   BMIX     =  1.00
     AMIX_MAG =   1.60;   BMIX_MAG =  1.00
     AMIN     =   0.10
     WC   =   100.;   INIMIX=   1;  MIXPRE=   1;  MAXMIX= -45

 Intra band minimization:
   WEIMIN = 0.0010     energy-eigenvalue tresh-hold
   EBREAK =  0.17E-08  absolut break condition
   DEPER  =   0.30     relativ break condition  

   TIME   =   0.40     timestep for ELM

  volume/ion in A,a.u.               =      13.62        91.88
  Fermi-wavevector in a.u.,A,eV,Ry     =   1.652355  3.122499 37.147693  2.730278
  Thomas-Fermi vector in A             =   2.740979
 
 Write flags
   LWAVE        =      F    write WAVECAR
   LDOWNSAMPLE  =      F    k-point downsampling of WAVECAR
   LCHARG       =      T    write CHGCAR
   LVTOT        =      F    write LOCPOT, total local potential
   LVHAR        =      F    write LOCPOT, Hartree potential only
   WRT_POTENTIAL= false  ! write potential to hdf5 file
   LELF         =      F    write electronic localiz. function (ELF)
   LORBIT       =     11    0 simple, 1 ext, 2 COOP (PROOUT), +10 PAW based schemes


 Dipole corrections
   LMONO      =      F    monopole corrections only (constant potential shift)
   LDIPOL     =      F    correct potential (dipole corrections)
   IDIPOL     =      0    1-x, 2-y, 3-z, 4-all directions 
   EPSILON    =  1.0000000 bulk dielectric constant
   LVACPOTAV  =      F  vacuum potentials using an averaging scheme for the charge density
   VACPOTFLAT =  0.1000000 required flatness to determine vacuum potential
 Exchange correlation treatment:
   GGA     = PE    functional components
   XC_C    = 1    coefficients multiplying the functional components
   LIBXC   =     F    Libxc                    
   VOSKOWN =     0    Vosko Wilk Nusair interpolation
   LHFCALC =     F    Hartree Fock is set to
   LHFONE  =     F    Hartree Fock one center treatment
   AEXX    =    0.0000 exact exchange contribution

 Parameters of functionals:
   PE:
     No parameter
 
 Van der Waals corrections
   IVDW    =     0    specifies the selected vdW correction

 Linear response parameters
   LEPSILON=     F    determine dielectric tensor
   LRPA    =     F    only Hartree local field effects (RPA)
   LNABLA  =     F    use nabla operator in PAW spheres
   LVEL    =     F    velocity operator in full k-point grid
   CSHIFT  =0.1000    complex shift for real part using Kramers Kronig
   OMEGAMAX=  -1.0    maximum frequency
   DEG_THRESHOLD= 0.2000000E-02 threshold for treating states as degnerate
   RTIME   =   -0.100 relaxation time in fs
  (WPLASMAI=    0.000 imaginary part of plasma frequency in eV, 0.658/RTIME)
   DFIELD  = 0.0000000 0.0000000 0.0000000 field for delta impulse in time
 
  Optional k-point grid parameters
   LKPOINTS_OPT  =     F    use optional k-point grid
   KPOINTS_OPT_MODE=     1    mode for optional k-point grid
 
 Orbital magnetization related:
   ORBITALMAG=     F  switch on orbital magnetization
   LCHIMAG   =     F  perturbation theory with respect to B field
   DQ        =  0.001000  dq finite difference perturbation B field
   LLRAUG    =     F  two centre corrections for induced B field
   LBONE     =     F  B-component reconstruction in AE one-centre
   LVGVCALC  =     T  calculate vGv susceptibility
   LVGVAPPL  =     F  apply vGv susceptibility instead of pGv for G=0

 Random number generation:
   RANDOM_GENERATOR = DEFAULT
   PCG_SEED         = not used


--------------------------------------------------------------------------------------------------------


 conjugate gradient relaxation of ions
 charge density and potential will be updated during run
 spin polarized calculation
 RMM-DIIS sequential band-by-band and
  variant of blocked Davidson during initial phase
 perform sub-space diagonalisation
    before iterative eigenvector-optimisation
 modified Broyden-mixing scheme, WC =      100.0
 initial mixing is a Kerker type mixing with AMIX =  0.4000 and BMIX =      1.0000
 Hartree-type preconditioning will be used
 using additional bands           32
 real space projection scheme for non local part
 use partial core corrections
 calculate Harris-corrections to forces 
   (improved forces if not selfconsistent)
 use gradient corrections 
 use of overlap-Matrix (Vanderbilt PP)
 Methfessel and Paxton  Order N= 1 SIGMA  =   0.20


--------------------------------------------------------------------------------------------------------


  energy-cutoff  :      520.00
  volume of cell :      217.85
      direct lattice vectors                 reciprocal lattice vectors
     6.017101912  0.000000000  0.000000000     0.166192964  0.000000000  0.000000000
     0.000000000  6.017101912  0.000000000     0.000000000  0.166192964  0.000000000
     0.000000000  0.000000000  6.017101912     0.000000000  0.000000000  0.166192964

  length of vectors
     6.017101912  6.017101912  6.017101912     0.166192964  0.166192964  0.166192964


 
 k-points in units of 2pi/SCALE and weight: K-Spacing Value to Generate K-Mesh: 0.03
   0.04154824  0.04154824  0.04154824       1.000
 
 k-points in reciprocal lattice and weights: K-Spacing Value to Generate K-Mesh: 0.03
   0.25000000  0.25000000  0.25000000       1.000
 
 position of ions in fractional coordinates (direct lattice) 
   0.00000000  0.00000000  0.00000000
   0.00000000  0.00000000  0.50000000
   0.00000000  0.50000000  0.00000000
   0.00000000  0.50000000  0.50000000
   0.50000000  0.00000000  0.00000000
   0.50000000  0.00000000  0.50000000
   0.50000000  0.50000000  0.00000000
   0.50000000  0.50000000  0.50000000
   0.25000000  0.75000000  0.75000000
   0.25000000  0.25000000  0.75000000
   0.25000000  0.75000000  0.25000000
   0.75000000  0.25000000  0.25000000
   0.75000000  0.25000000  0.75000000
   0.75000000  0.75000000  0.25000000
   0.75000000  0.75000000  0.75000000
   0.25000000  0.25000000  0.25000000
 
 position of ions in cartesian coordinates  (Angst):
   0.00000000  0.00000000  0.00000000
   0.00000000  0.00000000  3.00855096
   0.00000000  3.00855096  0.00000000
   0.00000000  3.00855096  3.00855096
   3.00855096  0.00000000  0.00000000
   3.00855096  0.00000000  3.00855096
   3.00855096  3.00855096  0.00000000
   3.00855096  3.00855096  3.00855096
   1.50427548  4.51282643  4.51282643
   1.50427548  1.50427548  4.51282643
   1.50427548  4.51282643  1.50427548
   4.51282643  1.50427548  1.50427548
   4.51282643  1.50427548  4.51282643
   4.51282643  4.51282643  1.50427548
   4.51282643  4.51282643  4.51282643
   1.50427548  1.50427548  1.50427548
 


--------------------------------------------------------------------------------------------------------


 k-point     1 :   0.2500 0.2500 0.2500  plane waves:    5854

 maximum and minimum number of plane-waves per node :      1465     1462

 maximum number of plane-waves:      5854
 maximum index in each direction: 
   IXMAX=   10   IYMAX=   10   IZMAX=   10
   IXMIN=  -11   IYMIN=  -11   IZMIN=  -11


 real space projection operators:
  total allocation   :      14257.95 KBytes
  max/ min on nodes  :       3588.48       3532.85


 parallel 3D FFT for wavefunctions:
    minimum data exchange during FFTs selected (reduces bandwidth)
 parallel 3D FFT for charge:
    minimum data exchange during FFTs selected (reduces bandwidth)


 total amount of memory used by VASP MPI-rank0    43259. kBytes
=======================================================================

   base      :      30000. kBytes
   nonlr-proj:       7092. kBytes
   fftplans  :       1454. kBytes
   grid      :       3879. kBytes
   one-center:        240. kBytes
   wavefun   :        594. kBytes
 
     INWAV:  cpu time      0.0000: real time      0.0001
 Broyden mixing: mesh for mixing (old mesh)
   NGX = 23   NGY = 23   NGZ = 23
  (NGX  = 96   NGY  = 96   NGZ  = 96)
  gives a total of  12167 points

 initial charge density was supplied:
 charge density of overlapping atoms calculated
 number of electron     224.0000000 magnetization       9.6000000
 keeping initial charge density in first step


--------------------------------------------------------------------------------------------------------


 Maximum index for non-local projection operator         2439
 Maximum index for augmentation-charges          553 (set IRDMAX)


--------------------------------------------------------------------------------------------------------


 First call to EWALD:  gamma=   0.295
 Maximum number of real-space cells 3x 3x 3
 Maximum number of reciprocal cells 3x 3x 3

    FEWALD:  cpu time      0.0011: real time      0.0265


--------------------------------------- Ionic step        1  -------------------------------------------




--------------------------------------- Iteration      1(   1)  ---------------------------------------


    POTLOK:  cpu time      0.0257: real time      0.0469
    SETDIJ:  cpu time      0.8110: real time      0.8149
     EDDAV:  cpu time      0.5142: real time      1.1399
       DOS:  cpu time      0.0011: real time      0.0011
    --------------------------------------------
      LOOP:  cpu time      1.3521: real time      2.0029

 eigenvalue-minimisations  :   696
 total energy-change (2. order) : 0.2948871E+04  (-0.1335963E+05)
 number of electron     224.0000000 magnetization       9.6000000
 augmentation part      224.0000000 magnetization       9.6000000

 Free energy of the ion-electron system (eV)
  ---------------------------------------------------
  alpha Z        PSCENC =      1598.42484341
  Ewald energy   TEWEN  =    -28138.67686484
  -Hartree energ DENC   =    -14102.08994988
  -exchange      EXHF   =         0.00000000
  -V(xc)+E(xc)   XCENC  =       844.25654525
  PAW double counting   =     36961.04583861   -37919.31422291
  entropy T*S    EENTRO =        -0.04347527
  eigenvalues    EBANDS =       719.27046411
  atomic energy  EATOM  =     42985.99789090
  Solvation  Ediel_sol  =         0.00000000
  ---------------------------------------------------
  free energy    TOTEN  =      2948.87106938 eV

  energy without entropy =     2948.91454465  energy(sigma->0) =     2948.88556114


--------------------------------------------------------------------------------------------------------




--------------------------------------- Iteration      1(   2)  ---------------------------------------


     EDDAV:  cpu time      0.4061: real time      0.4150
       DOS:  cpu time      0.0003: real time      0.0003
    --------------------------------------------
      LOOP:  cpu time      0.4063: real time      0.4151

 eigenvalue-minimisations  :   576
 total energy-change (2. order) :-0.2773817E+04  (-0.2667238E+04)
 number of electron     224.0000000 magnetization       9.6000000
 augmentation part      224.0000000 magnetization       9.6000000

 Free energy of the ion-electron system (eV)
  ---------------------------------------------------
  alpha Z        PSCENC =      1598.42484341
  Ewald energy   TEWEN  =    -28138.67686484
  -Hartree energ DENC   =    -14102.08994988
  -exchange      EXHF   =         0.00000000
  -V(xc)+E(xc)   XCENC  =       844.25654525
  PAW double counting   =     36961.04583861   -37919.31422291
  entropy T*S    EENTRO =        -0.01495257
  eigenvalues    EBANDS =     -2054.57533831
  atomic energy  EATOM  =     42985.99789090
  Solvation  Ediel_sol  =         0.00000000
  ---------------------------------------------------
  free energy    TOTEN  =       175.05378966 eV

  energy without entropy =      175.06874223  energy(sigma->0) =      175.05877385


--------------------------------------------------------------------------------------------------------




--------------------------------------- Iteration      1(   3)  ---------------------------------------


     EDDAV:  cpu time      0.4417: real time      0.4474
       DOS:  cpu time      0.0003: real time      0.0003
    --------------------------------------------
      LOOP:  cpu time      0.4419: real time      0.4477

 eigenvalue-minimisations  :   636
 total energy-change (2. order) :-0.2468292E+03  (-0.2250911E+03)
 number of electron     224.0000000 magnetization       9.6000000
 augmentation part      224.0000000 magnetization       9.6000000

 Free energy of the ion-electron system (eV)
  ---------------------------------------------------
  alpha Z        PSCENC =      1598.42484341
  Ewald energy   TEWEN  =    -28138.67686484
  -Hartree energ DENC   =    -14102.08994988
  -exchange      EXHF   =         0.00000000
  -V(xc)+E(xc)   XCENC  =       844.25654525
  PAW double counting   =     36961.04583861   -37919.31422291
  entropy T*S    EENTRO =        -0.01319997
  eigenvalues    EBANDS =     -2301.40632101
  atomic energy  EATOM  =     42985.99789090
  Solvation  Ediel_sol  =         0.00000000
  ---------------------------------------------------
  free energy    TOTEN  =       -71.77544043 eV

  energy without entropy =      -71.76224047  energy(sigma->0) =      -71.77104045


--------------------------------------------------------------------------------------------------------




--------------------------------------- Iteration      1(   4)  ---------------------------------------


     EDDAV:  cpu time      0.5158: real time      0.5217
       DOS:  cpu time      0.0003: real time      0.0003
    --------------------------------------------
      LOOP:  cpu time      0.5161: real time      0.5220

 eigenvalue-minimisations  :   768
 total energy-change (2. order) :-0.1233053E+02  (-0.1210498E+02)
 number of electron     224.0000000 magnetization       9.6000000
 augmentation part      224.0000000 magnetization       9.6000000

 Free energy of the ion-electron system (eV)
  ---------------------------------------------------
  alpha Z        PSCENC =      1598.42484341
  Ewald energy   TEWEN  =    -28138.67686484
  -Hartree energ DENC   =    -14102.08994988
  -exchange      EXHF   =         0.00000000
  -V(xc)+E(xc)   XCENC  =       844.25654525
  PAW double counting   =     36961.04583861   -37919.31422291
  entropy T*S    EENTRO =        -0.01195665
  eigenvalues    EBANDS =     -2313.73809238
  atomic energy  EATOM  =     42985.99789090
  Solvation  Ediel_sol  =         0.00000000
  ---------------------------------------------------
  free energy    TOTEN  =       -84.10596849 eV

  energy without entropy =      -84.09401184  energy(sigma->0) =      -84.10198294


--------------------------------------------------------------------------------------------------------




--------------------------------------- Iteration      1(   5)  ---------------------------------------


     EDDAV:  cpu time      0.5017: real time      0.5073
       DOS:  cpu time      0.0003: real time      0.0003
    CHARGE:  cpu time      0.0311: real time      0.0314
    MIXING:  cpu time      0.0025: real time      0.0025
    --------------------------------------------
      LOOP:  cpu time      0.5356: real time      0.5416

 eigenvalue-minimisations  :   744
 total energy-change (2. order) :-0.6628216E+00  (-0.6613355E+00)
 number of electron     224.0000309 magnetization       3.2761755
 augmentation part      118.5112263 magnetization       3.0270295

 Broyden mixing:
  rms(total) = 0.74811E+01    rms(broyden)= 0.74807E+01
  rms(prec ) = 0.87749E+01
  weight for this iteration     100.00

 Free energy of the ion-electron system (eV)
  ---------------------------------------------------
  alpha Z        PSCENC =      1598.42484341
  Ewald energy   TEWEN  =    -28138.67686484
  -Hartree energ DENC   =    -14102.08994988
  -exchange      EXHF   =         0.00000000
  -V(xc)+E(xc)   XCENC  =       844.25654525
  PAW double counting   =     36961.04583861   -37919.31422291
  entropy T*S    EENTRO =        -0.01213151
  eigenvalues    EBANDS =     -2314.40073908
  atomic energy  EATOM  =     42985.99789090
  Solvation  Ediel_sol  =         0.00000000
  ---------------------------------------------------
  free energy    TOTEN  =       -84.76879004 eV

  energy without entropy =      -84.75665853  energy(sigma->0) =      -84.76474620


--------------------------------------------------------------------------------------------------------




--------------------------------------- Iteration      1(   6)  ---------------------------------------


    POTLOK:  cpu time      0.0270: real time      0.0274
    SETDIJ:  cpu time      0.8149: real time      0.8182
    EDDIAG:  cpu time      0.0409: real time      0.0413
  RMM-DIIS:  cpu time      0.1567: real time      0.1757
    ORTHCH:  cpu time      0.0093: real time      0.0094
       DOS:  cpu time      0.0003: real time      0.0003
    CHARGE:  cpu time      0.0305: real time      0.0307
    MIXING:  cpu time      0.0013: real time      0.0068
    --------------------------------------------
      LOOP:  cpu time      1.0810: real time      1.1099

 eigenvalue-minimisations  :   576
 total energy-change (2. order) :-0.1144891E+02  (-0.1890258E+02)
 number of electron     224.0000335 magnetization       2.1407194
 augmentation part      128.5266505 magnetization       1.4443342

 Broyden mixing:
  rms(total) = 0.69983E+01    rms(broyden)= 0.69979E+01
  rms(prec ) = 0.84211E+01
  weight for this iteration     100.00

 eigenvalues of (default mixing * dielectric matrix)
  average eigenvalue GAMMA=   0.5461
  0.5461

 Free energy of the ion-electron system (eV)
  ---------------------------------------------------
  alpha Z        PSCENC =      1598.42484341
  Ewald energy   TEWEN  =    -28138.67686484
  -Hartree energ DENC   =    -13342.07364906
  -exchange      EXHF   =         0.00000000
  -V(xc)+E(xc)   XCENC  =       818.96990277
  PAW double counting   =     37358.36625034   -38269.78580182
  entropy T*S    EENTRO =         0.00386969
  eigenvalues    EBANDS =     -3107.44414177
  atomic energy  EATOM  =     42985.99789090
  Solvation  Ediel_sol  =         0.00000000
  ---------------------------------------------------
  free energy    TOTEN  =       -96.21770038 eV

  energy without entropy =      -96.22157006  energy(sigma->0) =      -96.21899027


--------------------------------------------------------------------------------------------------------




--------------------------------------- Iteration      1(   7)  ---------------------------------------


    POTLOK:  cpu time      0.0267: real time      0.0272
    SETDIJ:  cpu time      0.8249: real time      0.8285
    EDDIAG:  cpu time      0.0393: real time      0.0396
  RMM-DIIS:  cpu time      0.1536: real time      0.1556
    ORTHCH:  cpu time      0.0092: real time      0.0093
       DOS:  cpu time      0.0003: real time      0.0003
    CHARGE:  cpu time      0.0300: real time      0.0302
    MIXING:  cpu time      0.0010: real time      0.0025
    --------------------------------------------
      LOOP:  cpu time      1.0850: real time      1.0932

 eigenvalue-minimisations  :   577
 total energy-change (2. order) : 0.2191799E+02  (-0.5288818E+01)
 number of electron     224.0000320 magnetization       0.7086473
 augmentation part      125.6174378 magnetization       0.0972815

 Broyden mixing:
  rms(total) = 0.15334E+01    rms(broyden)= 0.15332E+01
  rms(prec ) = 0.17672E+01
  weight for this iteration     100.00

 eigenvalues of (default mixing * dielectric matrix)
  average eigenvalue GAMMA=   0.8890
  1.2763  0.5017

 Free energy of the ion-electron system (eV)
  ---------------------------------------------------
  alpha Z        PSCENC =      1598.42484341
  Ewald energy   TEWEN  =    -28138.67686484
  -Hartree energ DENC   =    -13658.61203533
  -exchange      EXHF   =         0.00000000
  -V(xc)+E(xc)   XCENC  =       829.30763050
  PAW double counting   =     38718.69313719   -39700.18586520
  entropy T*S    EENTRO =        -0.04424038
  eigenvalues    EBANDS =     -2709.20420361
  atomic energy  EATOM  =     42985.99789090
  Solvation  Ediel_sol  =         0.00000000
  ---------------------------------------------------
  free energy    TOTEN  =       -74.29970737 eV

  energy without entropy =      -74.25546698  energy(sigma->0) =      -74.28496057


--------------------------------------------------------------------------------------------------------




--------------------------------------- Iteration      1(   8)  ---------------------------------------


    POTLOK:  cpu time      0.0269: real time      0.0272
    SETDIJ:  cpu time      0.8205: real time      0.8240
    EDDIAG:  cpu time      0.0391: real time      0.0393
  RMM-DIIS:  cpu time      0.1556: real time      0.1572
    ORTHCH:  cpu time      0.0091: real time      0.0091
       DOS:  cpu time      0.0003: real time      0.0003
    CHARGE:  cpu time      0.0296: real time      0.0298
    MIXING:  cpu time      0.0012: real time      0.0690
    --------------------------------------------
      LOOP:  cpu time      1.0823: real time      1.1559

 eigenvalue-minimisations  :   583
 total energy-change (2. order) :-0.3574734E+00  (-0.6366844E+00)
 number of electron     224.0000319 magnetization       0.2953595
 augmentation part      123.9282542 magnetization       0.1563934

 Broyden mixing:
  rms(total) = 0.22443E+01    rms(broyden)= 0.22441E+01
  rms(prec ) = 0.31282E+01
  weight for this iteration     100.00

 eigenvalues of (default mixing * dielectric matrix)
  average eigenvalue GAMMA=   0.7529
  1.4689  0.3949  0.3949

 Free energy of the ion-electron system (eV)
  ---------------------------------------------------
  alpha Z        PSCENC =      1598.42484341
  Ewald energy   TEWEN  =    -28138.67686484
  -Hartree energ DENC   =    -13714.36995903
  -exchange      EXHF   =         0.00000000
  -V(xc)+E(xc)   XCENC  =       831.26337657
  PAW double counting   =     39564.95394436   -40569.55327673
  entropy T*S    EENTRO =        -0.06129865
  eigenvalues    EBANDS =     -2632.63583676
  atomic energy  EATOM  =     42985.99789090
  Solvation  Ediel_sol  =         0.00000000
  ---------------------------------------------------
  free energy    TOTEN  =       -74.65718077 eV

  energy without entropy =      -74.59588212  energy(sigma->0) =      -74.63674788


--------------------------------------------------------------------------------------------------------




--------------------------------------- Iteration      1(   9)  ---------------------------------------


    POTLOK:  cpu time      0.0270: real time      0.0274
    SETDIJ:  cpu time      0.8216: real time      0.8249
    EDDIAG:  cpu time      0.0387: real time      0.0390
  RMM-DIIS:  cpu time      0.1564: real time      0.1582
    ORTHCH:  cpu time      0.0092: real time      0.0092
       DOS:  cpu time      0.0003: real time      0.0003
    CHARGE:  cpu time      0.0299: real time      0.0302
    MIXING:  cpu time      0.0008: real time      0.0008
    --------------------------------------------
      LOOP:  cpu time      1.0840: real time      1.0899

 eigenvalue-minimisations  :   580
 total energy-change (2. order) : 0.5732836E+00  (-0.3353858E+00)
 number of electron     224.0000319 magnetization      -0.3593935
 augmentation part      124.0796641 magnetization      -0.4884102

 Broyden mixing:
  rms(total) = 0.15018E+01    rms(broyden)= 0.15016E+01
  rms(prec ) = 0.17121E+01
  weight for this iteration     100.00

 eigenvalues of (default mixing * dielectric matrix)
  average eigenvalue GAMMA=   0.8837
  2.1327  0.5795  0.5795  0.2431

 Free energy of the ion-electron system (eV)
  ---------------------------------------------------
  alpha Z        PSCENC =      1598.42484341
  Ewald energy   TEWEN  =    -28138.67686484
  -Hartree energ DENC   =    -13707.11815509
  -exchange      EXHF   =         0.00000000
  -V(xc)+E(xc)   XCENC  =       831.08253121
  PAW double counting   =     39846.30834711   -40856.78195353
  entropy T*S    EENTRO =        -0.10829568
  eigenvalues    EBANDS =     -2633.21224065
  atomic energy  EATOM  =     42985.99789090
  Solvation  Ediel_sol  =         0.00000000
  ---------------------------------------------------
  free energy    TOTEN  =       -74.08389717 eV

  energy without entropy =      -73.97560148  energy(sigma->0) =      -74.04779861


--------------------------------------------------------------------------------------------------------




--------------------------------------- Iteration      1(  10)  ---------------------------------------


    POTLOK:  cpu time      0.0271: real time      0.0276
    SETDIJ:  cpu time      0.8254: real time      0.8295
    EDDIAG:  cpu time      0.0390: real time      0.0393
  RMM-DIIS:  cpu time      0.1626: real time      0.1644
    ORTHCH:  cpu time      0.0092: real time      0.0092
       DOS:  cpu time      0.0003: real time      0.0003
    CHARGE:  cpu time      0.0297: real time      0.0299
    MIXING:  cpu time      0.0008: real time      0.0008
    --------------------------------------------
      LOOP:  cpu time      1.0940: real time      1.1010

 eigenvalue-minimisations  :   598
 total energy-change (2. order) : 0.2642673E+00  (-0.4178574E-01)
 number of electron     224.0000319 magnetization      -0.3996054
 augmentation part      124.4968174 magnetization      -0.3130575

 Broyden mixing:
  rms(total) = 0.75253E+00    rms(broyden)= 0.75252E+00
  rms(prec ) = 0.89624E+00
  weight for this iteration     100.00

 eigenvalues of (default mixing * dielectric matrix)
  average eigenvalue GAMMA=   1.0235
  2.6585  0.9253  0.7049  0.5745  0.2545

 Free energy of the ion-electron system (eV)
  ---------------------------------------------------
  alpha Z        PSCENC =      1598.42484341
  Ewald energy   TEWEN  =    -28138.67686484
  -Hartree energ DENC   =    -13677.00101562
  -exchange      EXHF   =         0.00000000
  -V(xc)+E(xc)   XCENC  =       830.12781103
  PAW double counting   =     40408.65440633   -41426.43585512
  entropy T*S    EENTRO =        -0.09949521
  eigenvalues    EBANDS =     -2654.81135073
  atomic energy  EATOM  =     42985.99789090
  Solvation  Ediel_sol  =         0.00000000
  ---------------------------------------------------
  free energy    TOTEN  =       -73.81962986 eV

  energy without entropy =      -73.72013464  energy(sigma->0) =      -73.78646478


--------------------------------------------------------------------------------------------------------




--------------------------------------- Iteration      1(  11)  ---------------------------------------


    POTLOK:  cpu time      0.0241: real time      0.0274
    SETDIJ:  cpu time      0.8304: real time      0.8339
    EDDIAG:  cpu time      0.0394: real time      0.0396
  RMM-DIIS:  cpu time      0.1586: real time      0.1602
    ORTHCH:  cpu time      0.0091: real time      0.0092
       DOS:  cpu time      0.0003: real time      0.0003
    CHARGE:  cpu time      0.0299: real time      0.0300
    MIXING:  cpu time      0.0009: real time      0.0009
    --------------------------------------------
      LOOP:  cpu time      1.0926: real time      1.1015

 eigenvalue-minimisations  :   590
 total energy-change (2. order) : 0.1127999E+00  (-0.3044822E-01)
 number of electron     224.0000320 magnetization      -0.1653618
 augmentation part      124.8815398 magnetization      -0.0595684

 Broyden mixing:
  rms(total) = 0.30908E+00    rms(broyden)= 0.30905E+00
  rms(prec ) = 0.40653E+00
  weight for this iteration     100.00

 eigenvalues of (default mixing * dielectric matrix)
  average eigenvalue GAMMA=   1.0019
  2.6401  1.3086  0.6291  0.6291  0.5484  0.2562

 Free energy of the ion-electron system (eV)
  ---------------------------------------------------
  alpha Z        PSCENC =      1598.42484341
  Ewald energy   TEWEN  =    -28138.67686484
  -Hartree energ DENC   =    -13651.29196120
  -exchange      EXHF   =         0.00000000
  -V(xc)+E(xc)   XCENC  =       829.32451298
  PAW double counting   =     40604.20133034   -41620.46572882
  entropy T*S    EENTRO =        -0.07620914
  eigenvalues    EBANDS =     -2681.14464358
  atomic energy  EATOM  =     42985.99789090
  Solvation  Ediel_sol  =         0.00000000
  ---------------------------------------------------
  free energy    TOTEN  =       -73.70682995 eV

  energy without entropy =      -73.63062082  energy(sigma->0) =      -73.68142691


--------------------------------------------------------------------------------------------------------




--------------------------------------- Iteration      1(  12)  ---------------------------------------


    POTLOK:  cpu time      0.0234: real time      0.0274
    SETDIJ:  cpu time      0.8312: real time      0.8346
    EDDIAG:  cpu time      0.0389: real time      0.0391
  RMM-DIIS:  cpu time      0.1600: real time      0.1617
    ORTHCH:  cpu time      0.0092: real time      0.0092
       DOS:  cpu time      0.0003: real time      0.0003
    CHARGE:  cpu time      0.0297: real time      0.0298
    MIXING:  cpu time      0.0009: real time      0.0009
    --------------------------------------------
      LOOP:  cpu time      1.0936: real time      1.1031

 eigenvalue-minimisations  :   607
 total energy-change (2. order) : 0.3395001E-01  (-0.7031831E-02)
 number of electron     224.0000320 magnetization      -0.0099372
 augmentation part      124.8744634 magnetization       0.0365209

 Broyden mixing:
  rms(total) = 0.19616E+00    rms(broyden)= 0.19615E+00
  rms(prec ) = 0.22349E+00
  weight for this iteration     100.00

 eigenvalues of (default mixing * dielectric matrix)
  average eigenvalue GAMMA=   1.0435
  2.7780  1.6858  0.7493  0.7493  0.2558  0.6218  0.4642

 Free energy of the ion-electron system (eV)
  ---------------------------------------------------
  alpha Z        PSCENC =      1598.42484341
  Ewald energy   TEWEN  =    -28138.67686484
  -Hartree energ DENC   =    -13654.40207594
  -exchange      EXHF   =         0.00000000
  -V(xc)+E(xc)   XCENC  =       829.40466274
  PAW double counting   =     40538.04832205   -41551.18757418
  entropy T*S    EENTRO =        -0.08140593
  eigenvalues    EBANDS =     -2681.20067815
  atomic energy  EATOM  =     42985.99789090
  Solvation  Ediel_sol  =         0.00000000
  ---------------------------------------------------
  free energy    TOTEN  =       -73.67287994 eV

  energy without entropy =      -73.59147401  energy(sigma->0) =      -73.64574463


--------------------------------------------------------------------------------------------------------




--------------------------------------- Iteration      1(  13)  ---------------------------------------


    POTLOK:  cpu time      0.0235: real time      0.0277
    SETDIJ:  cpu time      0.8322: real time      0.8356
    EDDIAG:  cpu time      0.0390: real time      0.0393
  RMM-DIIS:  cpu time      0.1687: real time      0.1705
    ORTHCH:  cpu time      0.0091: real time      0.0091
       DOS:  cpu time      0.0003: real time      0.0003
    CHARGE:  cpu time      0.0299: real time      0.0300
    MIXING:  cpu time      0.0010: real time      0.0010
    --------------------------------------------
      LOOP:  cpu time      1.1035: real time      1.1135

 eigenvalue-minimisations  :   623
 total energy-change (2. order) : 0.6025545E-02  (-0.1550368E-02)
 number of electron     224.0000320 magnetization       0.0048004
 augmentation part      124.8144054 magnetization       0.0093109

 Broyden mixing:
  rms(total) = 0.10746E+00    rms(broyden)= 0.10746E+00
  rms(prec ) = 0.11365E+00
  weight for this iteration     100.00

 eigenvalues of (default mixing * dielectric matrix)
  average eigenvalue GAMMA=   1.0827
  2.6931  2.0033  1.2068  0.7378  0.7378  0.2558  0.5736  0.4530

 Free energy of the ion-electron system (eV)
  ---------------------------------------------------
  alpha Z        PSCENC =      1598.42484341
  Ewald energy   TEWEN  =    -28138.67686484
  -Hartree energ DENC   =    -13662.29096458
  -exchange      EXHF   =         0.00000000
  -V(xc)+E(xc)   XCENC  =       829.62902559
  PAW double counting   =     40481.29520356   -41492.22209721
  entropy T*S    EENTRO =        -0.08118348
  eigenvalues    EBANDS =     -2675.74270776
  atomic energy  EATOM  =     42985.99789090
  Solvation  Ediel_sol  =         0.00000000
  ---------------------------------------------------
  free energy    TOTEN  =       -73.66685440 eV

  energy without entropy =      -73.58567092  energy(sigma->0) =      -73.63979324


--------------------------------------------------------------------------------------------------------




--------------------------------------- Iteration      1(  14)  ---------------------------------------


    POTLOK:  cpu time      0.0242: real time      0.0278
    SETDIJ:  cpu time      0.8341: real time      0.8376
    EDDIAG:  cpu time      0.0390: real time      0.0392
  RMM-DIIS:  cpu time      0.1794: real time      0.1810
    ORTHCH:  cpu time      0.0091: real time      0.0091
       DOS:  cpu time      0.0003: real time      0.0003
    CHARGE:  cpu time      0.0297: real time      0.0299
    MIXING:  cpu time      0.0010: real time      0.0010
    --------------------------------------------
      LOOP:  cpu time      1.1167: real time      1.1259

 eigenvalue-minimisations  :   653
 total energy-change (2. order) : 0.1829667E-03  (-0.5053661E-03)
 number of electron     224.0000320 magnetization       0.0047583
 augmentation part      124.8049918 magnetization       0.0027871

 Broyden mixing:
  rms(total) = 0.44542E-01    rms(broyden)= 0.44541E-01
  rms(prec ) = 0.55667E-01
  weight for this iteration     100.00

 eigenvalues of (default mixing * dielectric matrix)
  average eigenvalue GAMMA=   1.0367
  2.4322  2.4322  1.1653  0.8645  0.2559  0.6319  0.6319  0.4583  0.4583

 Free energy of the ion-electron system (eV)
  ---------------------------------------------------
  alpha Z        PSCENC =      1598.42484341
  Ewald energy   TEWEN  =    -28138.67686484
  -Hartree energ DENC   =    -13663.58490407
  -exchange      EXHF   =         0.00000000
  -V(xc)+E(xc)   XCENC  =       829.66284012
  PAW double counting   =     40468.05686666   -41477.58985787
  entropy T*S    EENTRO =        -0.08265756
  eigenvalues    EBANDS =     -2675.87482819
  atomic energy  EATOM  =     42985.99789090
  Solvation  Ediel_sol  =         0.00000000
  ---------------------------------------------------
  free energy    TOTEN  =       -73.66667143 eV

  energy without entropy =      -73.58401388  energy(sigma->0) =      -73.63911891


--------------------------------------------------------------------------------------------------------




--------------------------------------- Iteration      1(  15)  ---------------------------------------


    POTLOK:  cpu time      0.0271: real time      0.0277
    SETDIJ:  cpu time      0.8335: real time      0.8370
    EDDIAG:  cpu time      0.0390: real time      0.0393
  RMM-DIIS:  cpu time      0.1907: real time      0.1925
    ORTHCH:  cpu time      0.0093: real time      0.0093
       DOS:  cpu time      0.0003: real time      0.0003
    CHARGE:  cpu time      0.0298: real time      0.0299
    MIXING:  cpu time      0.0010: real time      0.0010
    --------------------------------------------
      LOOP:  cpu time      1.1307: real time      1.1371

 eigenvalue-minimisations  :   700
 total energy-change (2. order) : 0.3820371E-03  (-0.1553818E-03)
 number of electron     224.0000320 magnetization       0.0084710
 augmentation part      124.7897826 magnetization       0.0060019

 Broyden mixing:
  rms(total) = 0.27917E-01    rms(broyden)= 0.27917E-01
  rms(prec ) = 0.31764E-01
  weight for this iteration     100.00

 eigenvalues of (default mixing * dielectric matrix)
  average eigenvalue GAMMA=   1.0360
  2.5132  2.5132  1.2131  0.9674  0.2558  0.6198  0.6198  0.4504  0.6282  0.5793

 Free energy of the ion-electron system (eV)
  ---------------------------------------------------
  alpha Z        PSCENC =      1598.42484341
  Ewald energy   TEWEN  =    -28138.67686484
  -Hartree energ DENC   =    -13664.39900785
  -exchange      EXHF   =         0.00000000
  -V(xc)+E(xc)   XCENC  =       829.68932824
  PAW double counting   =     40467.66701157   -41476.90244252
  entropy T*S    EENTRO =        -0.08301099
  eigenvalues    EBANDS =     -2675.38403732
  atomic energy  EATOM  =     42985.99789090
  Solvation  Ediel_sol  =         0.00000000
  ---------------------------------------------------
  free energy    TOTEN  =       -73.66628940 eV

  energy without entropy =      -73.58327841  energy(sigma->0) =      -73.63861907


--------------------------------------------------------------------------------------------------------




--------------------------------------- Iteration      1(  16)  ---------------------------------------


    POTLOK:  cpu time      0.0271: real time      0.0276
    SETDIJ:  cpu time      0.8336: real time      0.8371
    EDDIAG:  cpu time      0.0385: real time      0.0388
  RMM-DIIS:  cpu time      0.1849: real time      0.1865
    ORTHCH:  cpu time      0.0093: real time      0.0093
       DOS:  cpu time      0.0003: real time      0.0003
    CHARGE:  cpu time      0.0295: real time      0.0296
    MIXING:  cpu time      0.0011: real time      0.0011
    --------------------------------------------
      LOOP:  cpu time      1.1243: real time      1.1303

 eigenvalue-minimisations  :   687
 total energy-change (2. order) : 0.1294324E-03  (-0.5130519E-04)
 number of electron     224.0000320 magnetization       0.0030558
 augmentation part      124.7779891 magnetization       0.0001961

 Broyden mixing:
  rms(total) = 0.77578E-02    rms(broyden)= 0.77568E-02
  rms(prec ) = 0.88075E-02
  weight for this iteration     100.00

 eigenvalues of (default mixing * dielectric matrix)
  average eigenvalue GAMMA=   1.1390
  2.8610  2.4301  2.2028  0.9965  0.2559  0.8926  0.6892  0.6892  0.5551  0.4495
  0.5069

 Free energy of the ion-electron system (eV)
  ---------------------------------------------------
  alpha Z        PSCENC =      1598.42484341
  Ewald energy   TEWEN  =    -28138.67686484
  -Hartree energ DENC   =    -13665.68356833
  -exchange      EXHF   =         0.00000000
  -V(xc)+E(xc)   XCENC  =       829.73152943
  PAW double counting   =     40468.13115454   -41476.93617146
  entropy T*S    EENTRO =        -0.08330371
  eigenvalues    EBANDS =     -2674.57166990
  atomic energy  EATOM  =     42985.99789090
  Solvation  Ediel_sol  =         0.00000000
  ---------------------------------------------------
  free energy    TOTEN  =       -73.66615996 eV

  energy without entropy =      -73.58285625  energy(sigma->0) =      -73.63839206


--------------------------------------------------------------------------------------------------------




--------------------------------------- Iteration      1(  17)  ---------------------------------------


    POTLOK:  cpu time      0.0273: real time      0.0278
    SETDIJ:  cpu time      0.8353: real time      0.8387
    EDDIAG:  cpu time      0.0388: real time      0.0390
  RMM-DIIS:  cpu time      0.1976: real time      0.1993
    ORTHCH:  cpu time      0.0091: real time      0.0091
       DOS:  cpu time      0.0003: real time      0.0003
    CHARGE:  cpu time      0.0298: real time      0.0300
    MIXING:  cpu time      0.0011: real time      0.0011
    --------------------------------------------
      LOOP:  cpu time      1.1393: real time      1.1455

 eigenvalue-minimisations  :   716
 total energy-change (2. order) :-0.7486349E-05  (-0.1566831E-04)
 number of electron     224.0000320 magnetization       0.0004887
 augmentation part      124.7750935 magnetization      -0.0000002

 Broyden mixing:
  rms(total) = 0.40153E-02    rms(broyden)= 0.40150E-02
  rms(prec ) = 0.52341E-02
  weight for this iteration     100.00

 eigenvalues of (default mixing * dielectric matrix)
  average eigenvalue GAMMA=   1.1075
  2.6147  2.6147  2.2929  0.2559  1.0010  0.9240  0.6821  0.6821  0.7431  0.5473
  0.4489  0.4834

 Free energy of the ion-electron system (eV)
  ---------------------------------------------------
  alpha Z        PSCENC =      1598.42484341
  Ewald energy   TEWEN  =    -28138.67686484
  -Hartree energ DENC   =    -13666.04411406
  -exchange      EXHF   =         0.00000000
  -V(xc)+E(xc)   XCENC  =       829.74586282
  PAW double counting   =     40472.80569382   -41481.43520966
  entropy T*S    EENTRO =        -0.08346165
  eigenvalues    EBANDS =     -2674.40080820
  atomic energy  EATOM  =     42985.99789090
  Solvation  Ediel_sol  =         0.00000000
  ---------------------------------------------------
  free energy    TOTEN  =       -73.66616745 eV

  energy without entropy =      -73.58270580  energy(sigma->0) =      -73.63834690


--------------------------------------------------------------------------------------------------------




--------------------------------------- Iteration      1(  18)  ---------------------------------------


    POTLOK:  cpu time      0.0271: real time      0.0276
    SETDIJ:  cpu time      0.8333: real time      0.8367
    EDDIAG:  cpu time      0.0389: real time      0.0391
  RMM-DIIS:  cpu time      0.1852: real time      0.1873
    ORTHCH:  cpu time      0.0094: real time      0.0094
       DOS:  cpu time      0.0003: real time      0.0003
    CHARGE:  cpu time      0.0301: real time      0.0303
    MIXING:  cpu time      0.0012: real time      0.0012
    --------------------------------------------
      LOOP:  cpu time      1.1254: real time      1.1318

 eigenvalue-minimisations  :   680
 total energy-change (2. order) :-0.1537031E-05  (-0.5116821E-05)
 number of electron     224.0000320 magnetization      -0.0000980
 augmentation part      124.7762074 magnetization      -0.0002130

 Broyden mixing:
  rms(total) = 0.17137E-02    rms(broyden)= 0.17136E-02
  rms(prec ) = 0.24438E-02
  weight for this iteration     100.00

 eigenvalues of (default mixing * dielectric matrix)
  average eigenvalue GAMMA=   1.1215
  2.8106  2.8106  2.1918  1.2279  0.9742  0.2559  0.8652  0.7074  0.7074  0.5661
  0.5327  0.4486  0.4805

 Free energy of the ion-electron system (eV)
  ---------------------------------------------------
  alpha Z        PSCENC =      1598.42484341
  Ewald energy   TEWEN  =    -28138.67686484
  -Hartree energ DENC   =    -13665.83696227
  -exchange      EXHF   =         0.00000000
  -V(xc)+E(xc)   XCENC  =       829.74019156
  PAW double counting   =     40474.02451433   -41482.72070734
  entropy T*S    EENTRO =        -0.08330354
  eigenvalues    EBANDS =     -2674.53577119
  atomic energy  EATOM  =     42985.99789090
  Solvation  Ediel_sol  =         0.00000000
  ---------------------------------------------------
  free energy    TOTEN  =       -73.66616899 eV

  energy without entropy =      -73.58286545  energy(sigma->0) =      -73.63840114


--------------------------------------------------------------------------------------------------------




--------------------------------------- Iteration      1(  19)  ---------------------------------------


    POTLOK:  cpu time      0.0270: real time      0.0276
    SETDIJ:  cpu time      0.8354: real time      0.8395
    EDDIAG:  cpu time      0.0388: real time      0.0391
  RMM-DIIS:  cpu time      0.1940: real time      0.1957
    ORTHCH:  cpu time      0.0092: real time      0.0092
       DOS:  cpu time      0.0003: real time      0.0003
    CHARGE:  cpu time      0.0300: real time      0.0302
    MIXING:  cpu time      0.0012: real time      0.0012
    --------------------------------------------
      LOOP:  cpu time      1.1360: real time      1.1429

 eigenvalue-minimisations  :   711
 total energy-change (2. order) :-0.1852459E-07  (-0.1685496E-05)
 number of electron     224.0000320 magnetization      -0.0002058
 augmentation part      124.7753659 magnetization      -0.0002522

 Broyden mixing:
  rms(total) = 0.10428E-02    rms(broyden)= 0.10428E-02
  rms(prec ) = 0.12653E-02
  weight for this iteration     100.00

 eigenvalues of (default mixing * dielectric matrix)
  average eigenvalue GAMMA=   1.1180
  2.8867  2.8867  2.2134  1.4258  1.0047  0.2559  0.8232  0.8232  0.6709  0.6709
  0.5403  0.5403  0.4487  0.4620

 Free energy of the ion-electron system (eV)
  ---------------------------------------------------
  alpha Z        PSCENC =      1598.42484341
  Ewald energy   TEWEN  =    -28138.67686484
  -Hartree energ DENC   =    -13665.88303770
  -exchange      EXHF   =         0.00000000
  -V(xc)+E(xc)   XCENC  =       829.74272942
  PAW double counting   =     40475.07523580   -41483.77273708
  entropy T*S    EENTRO =        -0.08330221
  eigenvalues    EBANDS =     -2674.49092671
  atomic energy  EATOM  =     42985.99789090
  Solvation  Ediel_sol  =         0.00000000
  ---------------------------------------------------
  free energy    TOTEN  =       -73.66616900 eV

  energy without entropy =      -73.58286679  energy(sigma->0) =      -73.63840160


--------------------------------------------------------------------------------------------------------




--------------------------------------- Iteration      1(  20)  ---------------------------------------


    POTLOK:  cpu time      0.0228: real time      0.0274
    SETDIJ:  cpu time      0.8339: real time      0.8374
    EDDIAG:  cpu time      0.0387: real time      0.0389
  RMM-DIIS:  cpu time      0.1514: real time      0.1528
    ORTHCH:  cpu time      0.0092: real time      0.0092
       DOS:  cpu time      0.0003: real time      0.0003
    --------------------------------------------
      LOOP:  cpu time      1.0564: real time      1.0661

 eigenvalue-minimisations  :   510
 total energy-change (2. order) :-0.3532259E-06  (-0.4772864E-06)
 number of electron     224.0000320 magnetization      -0.0002058
 augmentation part      124.7753659 magnetization      -0.0002522

 Free energy of the ion-electron system (eV)
  ---------------------------------------------------
  alpha Z        PSCENC =      1598.42484341
  Ewald energy   TEWEN  =    -28138.67686484
  -Hartree energ DENC   =    -13665.88398212
  -exchange      EXHF   =         0.00000000
  -V(xc)+E(xc)   XCENC  =       829.74319690
  PAW double counting   =     40475.71669798   -41484.40680266
  entropy T*S    EENTRO =        -0.08327914
  eigenvalues    EBANDS =     -2674.49786979
  atomic energy  EATOM  =     42985.99789090
  Solvation  Ediel_sol  =         0.00000000
  ---------------------------------------------------
  free energy    TOTEN  =       -73.66616936 eV

  energy without entropy =      -73.58289022  energy(sigma->0) =      -73.63840964


--------------------------------------------------------------------------------------------------------




 average (electrostatic) potential at core
  the test charge radii are     0.8297  1.1199  1.2780
  (the norm of the test charge is              1.0000)
       1 -78.4183       2 -78.4183       3 -78.4183       4 -78.4183       5 -78.4183
       6 -78.4183       7 -78.4183       8 -78.4183       9 -78.3332      10 -72.7619
[...]
 -0.052  -0.007  -0.029   0.014   0.001   0.008  -5.967  -0.026
 -0.029  -0.029  -0.007   0.008   0.008   0.001  -0.026  -5.968
  0.015  -0.030   0.027  -0.004   0.009  -0.008   0.030  -0.016
 -0.007  -0.052  -0.029   0.001   0.014   0.008  -0.026  -0.026
  0.026   0.000  -0.046  -0.007  -0.000   0.013  -0.000   0.027
 -0.051  -0.006  -0.028   0.014   0.001   0.008  -6.551  -0.026
 -0.028  -0.028  -0.006   0.008   0.008   0.001  -0.026  -6.552
  0.014  -0.029   0.026  -0.004   0.008  -0.008   0.029  -0.015
 -0.006  -0.051  -0.028   0.001   0.014   0.008  -0.025  -0.026
  0.025   0.000  -0.045  -0.007  -0.000   0.013  -0.000   0.027
  0.007   0.007   0.012  -0.002  -0.002  -0.004   0.005   0.005
  0.014   0.014   0.026  -0.005  -0.005  -0.008   0.010   0.009
 pseudopotential strength for first ion, spin component:           2
-66.772  -0.042  -0.041   8.431   0.013   0.013  -0.052  -0.029
 -0.042 -66.772  -0.041   0.013   8.431   0.013  -0.007  -0.029
 -0.041  -0.041 -66.772   0.013   0.013   8.431  -0.029  -0.007
  8.431   0.013   0.013   5.873  -0.004  -0.004   0.014   0.008
  0.013   8.431   0.013  -0.004   5.873  -0.004   0.001   0.008
  0.013   0.013   8.431  -0.004  -0.004   5.873   0.008   0.001
 -0.052  -0.007  -0.029   0.014   0.001   0.008  -5.967  -0.026
 -0.029  -0.029  -0.007   0.008   0.008   0.001  -0.026  -5.968
  0.015  -0.030   0.027  -0.004   0.009  -0.008   0.030  -0.016
 -0.007  -0.052  -0.029   0.001   0.014   0.008  -0.026  -0.026
  0.026   0.000  -0.046  -0.007  -0.000   0.013  -0.000   0.027
 -0.051  -0.006  -0.028   0.014   0.001   0.008  -6.551  -0.026
 -0.028  -0.028  -0.006   0.008   0.008   0.001  -0.026  -6.552
  0.014  -0.029   0.026  -0.004   0.008  -0.008   0.029  -0.015
 -0.006  -0.051  -0.028   0.001   0.014   0.008  -0.025  -0.026
  0.025   0.000  -0.045  -0.007  -0.000   0.013  -0.000   0.027
  0.007   0.007   0.012  -0.002  -0.002  -0.004   0.005   0.005
  0.014   0.014   0.026  -0.005  -0.005  -0.008   0.010   0.009
 total augmentation occupancy for first ion, spin component:           1
  1.997   0.000  -0.000  -0.016   0.000   0.000   0.006   0.004  -0.002  -0.001  -0.004  -0.006  -0.003   0.002   0.001   0.004
  0.000   1.997  -0.000   0.000  -0.016   0.000  -0.001   0.004   0.004   0.006   0.000   0.001  -0.003  -0.004  -0.006  -0.000
 -0.000  -0.000   1.997   0.000   0.000  -0.016   0.004  -0.001  -0.004   0.004   0.007  -0.003   0.001   0.004  -0.003  -0.007
 -0.016   0.000   0.000   0.098  -0.005   0.000   0.060   0.044  -0.003   0.049  -0.011  -0.042  -0.034   0.001  -0.036   0.007
  0.000  -0.016   0.000  -0.005   0.098   0.000   0.049   0.044   0.011   0.060  -0.002  -0.036  -0.034  -0.006  -0.042   0.002
  0.000   0.000  -0.016   0.000   0.000   0.098   0.043   0.050  -0.006   0.043   0.011  -0.032  -0.037   0.002  -0.032  -0.003
  0.006  -0.001   0.004   0.060   0.049   0.043   3.546  -0.152   0.057  -0.191  -0.005  -1.340   0.102  -0.017   0.154  -0.000
  0.004   0.004  -0.001   0.044   0.044   0.050  -0.152   3.517  -0.082  -0.152   0.142   0.103  -1.325   0.053   0.103  -0.091
 -0.002   0.004  -0.004  -0.003   0.011  -0.006   0.057  -0.082   4.124  -0.025   0.008  -0.015   0.052  -1.628   0.007  -0.004
 -0.001   0.006   0.004   0.049   0.060   0.043  -0.191  -0.152  -0.025   3.546  -0.052   0.154   0.102   0.008  -1.340   0.014
 -0.004   0.000   0.007  -0.011  -0.002   0.011  -0.005   0.142   0.008  -0.052   4.114   0.000  -0.089  -0.004   0.013  -1.623
 -0.006   0.001  -0.003  -0.042  -0.036  -0.032  -1.340   0.103  -0.015   0.154   0.000   1.057  -0.059  -0.015  -0.115   0.002
 -0.003  -0.003   0.001  -0.034  -0.034  -0.037   0.102  -1.325   0.052   0.102  -0.089  -0.059   1.054  -0.028  -0.059   0.049
  0.002  -0.004   0.004   0.001  -0.006   0.002  -0.017   0.053  -1.628   0.008  -0.004  -0.015  -0.028   1.115   0.006   0.002
  0.001  -0.006  -0.003  -0.036  -0.042  -0.032   0.154   0.103   0.007  -1.340   0.013  -0.115  -0.059   0.006   1.057   0.014
  0.004  -0.000  -0.007   0.007   0.002  -0.003  -0.000  -0.091  -0.004   0.014  -1.623   0.002   0.049   0.002   0.014   1.112
 -0.019  -0.019  -0.034  -0.005  -0.005  -0.005  -0.079  -0.020  -0.012  -0.079   0.020   0.041  -0.009   0.008   0.041  -0.014
  0.009   0.009   0.016   0.002   0.002   0.001   0.041   0.042   0.001   0.041  -0.002  -0.006  -0.006  -0.000  -0.006   0.000
 total augmentation occupancy for first ion, spin component:           2
  0.000  -0.000   0.000   0.000  -0.000   0.000   0.000   0.000  -0.000  -0.000  -0.000  -0.000  -0.000   0.000   0.000   0.000
 -0.000   0.000   0.000  -0.000   0.000   0.000  -0.000   0.000   0.000   0.000   0.000   0.000  -0.000  -0.000  -0.000  -0.000
  0.000   0.000   0.000   0.000   0.000   0.000   0.000  -0.000  -0.000   0.000   0.000  -0.000   0.000   0.000  -0.000  -0.000
  0.000  -0.000   0.000   0.000  -0.000  -0.000   0.000  -0.000  -0.000  -0.000   0.000  -0.000   0.000   0.000   0.000  -0.000
 -0.000   0.000   0.000  -0.000   0.000  -0.000  -0.000  -0.000   0.000   0.000   0.000   0.000   0.000  -0.000  -0.000  -0.000
  0.000   0.000   0.000  -0.000  -0.000  -0.000  -0.000  -0.000   0.000  -0.000  -0.000   0.000   0.000  -0.000   0.000   0.000
  0.000  -0.000   0.000   0.000  -0.000  -0.000   0.000   0.000   0.000  -0.000  -0.000  -0.000  -0.000  -0.000   0.000   0.000
  0.000   0.000  -0.000  -0.000  -0.000  -0.000   0.000   0.000   0.000   0.000  -0.000  -0.000  -0.000  -0.000  -0.000   0.000
 -0.000   0.000  -0.000  -0.000   0.000   0.000   0.000   0.000   0.000   0.000   0.000  -0.000  -0.000  -0.000   0.000  -0.000
 -0.000   0.000   0.000  -0.000   0.000  -0.000  -0.000   0.000   0.000   0.000  -0.000   0.000  -0.000   0.000  -0.000   0.000
 -0.000   0.000   0.000   0.000   0.000  -0.000  -0.000  -0.000   0.000  -0.000   0.000   0.000   0.000  -0.000   0.000  -0.000
 -0.000   0.000  -0.000  -0.000   0.000   0.000  -0.000  -0.000  -0.000   0.000   0.000   0.000   0.000   0.000  -0.000   0.000
 -0.000  -0.000   0.000   0.000   0.000   0.000  -0.000  -0.000  -0.000  -0.000   0.000   0.000   0.000   0.000   0.000  -0.000
  0.000  -0.000   0.000   0.000  -0.000  -0.000  -0.000  -0.000  -0.000   0.000  -0.000   0.000   0.000   0.000  -0.000   0.000
  0.000  -0.000  -0.000   0.000  -0.000   0.000   0.000  -0.000   0.000  -0.000   0.000  -0.000   0.000  -0.000   0.000  -0.000
  0.000  -0.000  -0.000  -0.000  -0.000   0.000   0.000   0.000  -0.000   0.000  -0.000   0.000  -0.000   0.000  -0.000   0.000
 -0.000  -0.000   0.000  -0.000  -0.000   0.000   0.000   0.000   0.000   0.000  -0.000  -0.000  -0.000   0.000  -0.000  -0.000
  0.000   0.000  -0.000  -0.000  -0.000  -0.000  -0.000  -0.000  -0.000  -0.000   0.000   0.000   0.000  -0.000   0.000   0.000


------------------------ aborting loop because EDIFF is reached ----------------------------------------





 total charge

# of ion       s       p       d       f       tot
--------------------------------------------------
    1        0.293   6.161   8.888   0.000  15.341
    2        0.293   6.161   8.888   0.000  15.341
    3        0.293   6.161   8.888   0.000  15.341
    4        0.293   6.161   8.888   0.000  15.341
    5        0.293   6.161   8.888   0.000  15.341
    6        0.293   6.161   8.888   0.000  15.341
    7        0.293   6.161   8.888   0.000  15.341
    8        0.293   6.161   8.888   0.000  15.341
    9        0.259   6.158   8.887   0.000  15.305
   10        0.492   0.443   8.521   0.000   9.455
   11        0.492   0.443   8.521   0.000   9.455
   12        0.473   0.400   8.528   0.000   9.400
   13        0.451   0.462   8.522   0.000   9.436
   14        0.451   0.462   8.522   0.000   9.436
   15        0.504   0.484   8.660   0.000   9.647
   16        2.265   6.469   1.077   0.068   9.880
--------------------------------------------------
tot          7.730  64.608 132.339   0.068 204.745



 magnetization (x)

# of ion       s       p       d       f       tot
--------------------------------------------------
    1       -0.000  -0.000  -0.000   0.000  -0.000
    2       -0.000  -0.000  -0.000   0.000  -0.000
    3       -0.000  -0.000  -0.000   0.000  -0.000
    4       -0.000  -0.000  -0.000   0.000  -0.000
    5       -0.000  -0.000  -0.000   0.000  -0.000
    6       -0.000  -0.000  -0.000   0.000  -0.000
    7       -0.000  -0.000  -0.000   0.000  -0.000
    8       -0.000  -0.000  -0.000   0.000  -0.000
    9        0.000  -0.000   0.000   0.000   0.000
   10        0.000   0.000   0.000   0.000   0.000
   11        0.000   0.000   0.000   0.000   0.000
   12        0.000   0.000   0.000   0.000   0.000
   13       -0.000   0.000   0.000   0.000   0.000
   14       -0.000   0.000   0.000   0.000   0.000
   15        0.000   0.000   0.000   0.000   0.000
   16        0.000  -0.000   0.000   0.000  -0.000
--------------------------------------------------
tot         -0.000  -0.000   0.000   0.000  -0.000
 
    CHARGE:  cpu time      0.0307: real time      0.0310
    FORLOC:  cpu time      0.0011: real time      0.0011
    FORNL :  cpu time      0.1276: real time      0.1289
    STRESS:  cpu time      0.3666: real time      0.3695
    FORCOR:  cpu time      0.0230: real time      0.0232
    FORHAR:  cpu time      0.0028: real time      0.0028
    MIXING:  cpu time      0.0007: real time      0.0007
    OFIELD:  cpu time      0.0000: real time      0.0000

  FORCE on cell =-STRESS in cart. coord.  units (eV):
  Direction    XX          YY          ZZ          XY          YZ          ZX
  --------------------------------------------------------------------------------------
  Alpha Z  1545.49042  1545.49042  1545.49042
  Ewald   -8825.79671 -9363.25605 -9363.25605     0.00000     0.00000    -0.00000
  Hartree  5058.77045  4535.49461  4535.49461    -0.00000    -0.00000    -0.00000
  E(xc)   -1563.68255 -1563.74491 -1563.74491     0.00000     0.00000     0.00000
  Local    -328.71543   732.98768   732.98768     0.00000     0.00000     0.00000
  n-local  -886.07961  -887.68076  -887.68076    -2.62036    -2.40598    -2.61804
  augment  2143.19127  2143.40648  2143.40648     0.00000    -0.00000    -0.00000
  Kinetic  2856.82850  2857.30205  2857.30205    -4.08381    -5.11046    -4.08381
  Fock        0.00000     0.00000     0.00000     0.00000     0.00000     0.00000
  -------------------------------------------------------------------------------------
  Total       0.00634    -0.00049    -0.00049    -0.00000    -0.00000    -0.00000
  in kB       0.04506    -0.00350    -0.00350    -0.00000    -0.00000    -0.00000
  external pressure =        0.01 kB  Pullay stress =        0.00 kB


 VOLUME and BASIS-vectors are now :
 -----------------------------------------------------------------------------
  energy-cutoff  :      520.00
  volume of cell :      225.31
      direct lattice vectors                 reciprocal lattice vectors
     6.009942045  0.000000000 -0.000000000     0.166390956  0.000000000  0.000000000
    -0.000000000  6.122923891  0.000000000    -0.000000000  0.163320665  0.000000000
    -0.000000000 -0.000000000  6.122923891     0.000000000 -0.000000000  0.163320665

  length of vectors
     6.009942045  6.122923891  6.122923891     0.166390956  0.163320665  0.163320665


 FORCES acting on ions
    electron-ion (+dipol)            ewald-force                    non-local-force                 convergence-correction
 -----------------------------------------------------------------------------------------------
   0.442E+02 -.322E+03 -.322E+03   -.463E+02 0.320E+03 0.320E+03   0.212E+01 0.116E+01 0.116E+01   0.101E-02 0.665E-03 0.665E-03
   0.442E+02 -.322E+03 0.322E+03   -.463E+02 0.320E+03 -.320E+03   0.212E+01 0.116E+01 -.116E+01   0.101E-02 0.665E-03 -.665E-03
   0.442E+02 0.322E+03 -.322E+03   -.463E+02 -.320E+03 0.320E+03   0.212E+01 -.116E+01 0.116E+01   0.101E-02 -.665E-03 0.665E-03
   0.442E+02 0.322E+03 0.322E+03   -.463E+02 -.320E+03 -.320E+03   0.212E+01 -.116E+01 -.116E+01   0.101E-02 -.665E-03 -.665E-03
   -.442E+02 -.322E+03 -.322E+03   0.463E+02 0.320E+03 0.320E+03   -.212E+01 0.116E+01 0.116E+01   -.101E-02 0.665E-03 0.665E-03
   -.442E+02 -.322E+03 0.322E+03   0.463E+02 0.320E+03 -.320E+03   -.212E+01 0.116E+01 -.116E+01   -.101E-02 0.665E-03 -.665E-03
   -.442E+02 0.322E+03 -.322E+03   0.463E+02 -.320E+03 0.320E+03   -.212E+01 -.116E+01 0.116E+01   -.101E-02 -.665E-03 0.665E-03
   -.442E+02 0.322E+03 0.322E+03   0.463E+02 -.320E+03 -.320E+03   -.212E+01 -.116E+01 -.116E+01   -.101E-02 -.665E-03 -.665E-03
   0.215E-11 -.686E-11 -.567E-11   0.101E-12 0.276E-12 0.114E-12   -.891E-27 -.281E-26 -.286E-27   -.325E-10 0.332E-11 0.172E-11
   0.131E-12 0.477E-11 -.531E-11   0.190E-12 0.117E-12 -.207E-13   0.306E-27 0.141E-27 -.129E-25   -.291E-11 -.195E-11 -.106E-11
   0.124E-12 -.936E-12 0.219E-11   -.385E-13 0.100E-13 -.109E-14   0.255E-27 0.452E-26 0.700E-26   0.246E-11 -.115E-11 -.476E-11
   0.559E-12 0.549E-11 0.644E-12   -.176E-12 -.633E-13 -.519E-14   -.142E-27 -.124E-25 0.194E-25   -.173E-10 0.542E-12 -.253E-11
   0.519E-12 -.558E-12 0.153E-11   -.382E-12 0.550E-13 0.596E-13   0.322E-26 0.113E-25 -.181E-26   0.311E-11 -.214E-11 -.124E-11
   0.519E-12 0.147E-12 0.446E-13   -.510E-12 0.609E-13 0.226E-12   0.950E-27 0.186E-25 -.920E-27   -.257E-11 -.129E-11 -.516E-11
   0.479E-12 0.106E-12 -.424E-11   -.400E-13 -.113E-12 -.233E-13   0.264E-26 0.867E-26 0.260E-26   0.176E-10 0.190E-11 0.114E-11
   0.144E-12 0.553E-12 0.445E-11   -.196E-12 -.201E-12 -.124E-12   -.251E-26 0.156E-26 -.186E-26   0.165E-10 0.490E-12 -.241E-11
 -----------------------------------------------------------------------------------------------
   0.430E-10 0.459E-10 -.948E-09   0.851E-13 -.283E-13 -.583E-13   0.178E-14 0.666E-15 0.222E-15   -.143E-10 0.266E-10 0.177E-09
 
 
 POSITION                                       TOTAL-FORCE (eV/Angst)
 -----------------------------------------------------------------------------------
      5.97429      6.03370      6.03370         0.000611     -0.000038     -0.000038
      5.97429      6.03370      3.15069         0.000611     -0.000038      0.000038
      5.97429      3.15069      6.03370         0.000611      0.000038     -0.000038
      5.97429      3.15069      3.15069         0.000611      0.000038      0.000038
      3.04063      6.03370      6.03370        -0.000611     -0.000038     -0.000038
      3.04063      6.03370      3.15069        -0.000611     -0.000038      0.000038
      3.04063      3.15069      6.03370        -0.000611      0.000038     -0.000038
      3.04063      3.15069      3.15069        -0.000611      0.000038      0.000038
      1.50249      4.59219      4.59219        -0.000000      0.000000      0.000000
      1.50249      1.53073      4.59219         0.000000     -0.000000      0.000000
      1.50249      4.59219      1.53073         0.000000      0.000000     -0.000000
      4.50746      1.53073      1.53073         0.000000     -0.000000     -0.000000
      4.50746      1.53073      4.59219         0.000000     -0.000000     -0.000000
      4.50746      4.59219      1.53073         0.000000     -0.000000     -0.000000
      4.50746      4.59219      4.59219        -0.000000      0.000000     -0.000000
      1.50249      1.53073      1.53073        -0.000000      0.000000      0.000000
 -----------------------------------------------------------------------------------
    total drift:                                0.000000      0.000000     -0.000000


--------------------------------------------------------------------------------------------------------



  FREE ENERGIE OF THE ION-ELECTRON SYSTEM (eV)
  ---------------------------------------------------
  free  energy   TOTEN  =       -74.31535297 eV

  energy  without entropy=      -74.19909117  energy(sigma->0) =      -74.27659904
 
 d Force =-0.2850221E-07[-0.373E-07,-0.197E-07]  d Energy = 0.1200533E-08-0.297E-07
 d Force =-0.8697216E-02[-0.870E-02,-0.870E-02]  d Ewald  = 0.1064238E+00-0.115E+00


--------------------------------------------------------------------------------------------------------


    POTLOK:  cpu time      0.9331: real time      0.9388


--------------------------------------------------------------------------------------------------------


 stress matrix after NEB project (eV)
      0.00634      0.00000     -0.00000
     -0.00000     -0.00049      0.00000
     -0.00000     -0.00000     -0.00049
  FORCES: max atom, RMS     0.000613    0.000433
  FORCE total and by dimension    0.001734    0.000611
  Stress total and by dimension    0.006375    0.006337


--------------------------------------------------------------------------------------------------------


  
 reached required accuracy - stopping structural energy minimisation
     LOOP+:  cpu time      7.2327: real time      7.2964
    4ORBIT:  cpu time      0.0000: real time      0.0000



 total charge

# of ion       s       p       d       f       tot
--------------------------------------------------
    1        0.293   6.161   8.888   0.000  15.341
    2        0.293   6.161   8.888   0.000  15.341
    3        0.293   6.161   8.888   0.000  15.341
    4        0.293   6.161   8.888   0.000  15.341
    5        0.293   6.161   8.888   0.000  15.341
    6        0.293   6.161   8.888   0.000  15.341
    7        0.293   6.161   8.888   0.000  15.341
    8        0.293   6.161   8.888   0.000  15.341
    9        0.259   6.158   8.887   0.000  15.305
   10        0.492   0.443   8.521   0.000   9.455
   11        0.492   0.443   8.521   0.000   9.455
   12        0.473   0.400   8.528   0.000   9.400
   13        0.451   0.462   8.522   0.000   9.436
   14        0.451   0.462   8.522   0.000   9.436
   15        0.504   0.484   8.660   0.000   9.647
   16        2.265   6.469   1.077   0.068   9.880
--------------------------------------------------
tot          7.730  64.608 132.339   0.068 204.745



 magnetization (x)

# of ion       s       p       d       f       tot
--------------------------------------------------
    1       -0.000  -0.000  -0.000   0.000  -0.000
    2       -0.000  -0.000  -0.000   0.000  -0.000
    3       -0.000  -0.000  -0.000   0.000  -0.000
    4       -0.000  -0.000  -0.000   0.000  -0.000
    5       -0.000  -0.000  -0.000   0.000  -0.000
    6       -0.000  -0.000  -0.000   0.000  -0.000
    7       -0.000  -0.000  -0.000   0.000  -0.000
    8       -0.000  -0.000  -0.000   0.000  -0.000
    9        0.000  -0.000   0.000   0.000   0.000
   10        0.000   0.000   0.000   0.000   0.000
   11        0.000   0.000   0.000   0.000   0.000
   12        0.000   0.000   0.000   0.000   0.000
   13       -0.000   0.000   0.000   0.000   0.000
   14       -0.000   0.000   0.000   0.000   0.000
   15        0.000   0.000   0.000   0.000   0.000
   16        0.000  -0.000   0.000   0.000  -0.000
--------------------------------------------------
tot         -0.000  -0.000   0.000   0.000  -0.000
 

 total amount of memory used by VASP MPI-rank0    43259. kBytes
=======================================================================

   base      :      30000. kBytes
   nonlr-proj:       7092. kBytes
   fftplans  :       1454. kBytes
   grid      :       3879. kBytes
   one-center:        240. kBytes
   wavefun   :        594. kBytes
 
  
  
 General timing and accounting informations for this job:
 ========================================================
  
                  Total CPU time used (sec):      469.147
                            User time (sec):      464.802
                          System time (sec):        4.345
                         Elapsed time (sec):      478.512
  
                   Maximum memory used (kb):      453312.
                   Average memory used (kb):          N/A
  
                          Minor page faults:        32845
                          Major page faults:         2701
                 Voluntary context switches:        13539
