 vasp.6.4.3 19Mar24 (build Jul 01 2024 12:12:31) complex                        
  
 executed on             LinuxIFC date 2025.12.20  21:12:28
 running   48 mpi-ranks, on    1 nodes
 distrk:  each k-point on   48 cores,    1 groups
 distr:  one band on NCORE=   4 cores,   12 groups


--------------------------------------------------------------------------------------------------------


 INCAR:
   SYSTEM = Cu9Pd6Y1 static calculation
   ALGO = Normal
   EDIFF = 1e-06
   EDIFFG = -0.001
   ISTART = 1
   ENCUT = 520.0
   IBRION = 2
   ISIF = 3
   ISMEAR = 1
   ISPIN = 2
   LASPH = True
   LMAXMIX = 4
   LORBIT = 11
   LREAL = Auto
   LCHARGE = True
   LWAVE = False
   MAGMOM = 16*0.6
   NELM = 100
   NSW = 0
   PREC = Accurate
   SIGMA = 0.2
   NCORE = 4

 POTCAR:    PAW_PBE Cu_pv 06Sep2000               
 POTCAR:    PAW_PBE Pd 04Jan2005                  
 POTCAR:    PAW_PBE Y_sv 25May2007                
 POTCAR:    PAW_PBE Cu_pv 06Sep2000               
   SHA256 =  cb7b504e2ea725fe1f25c85a9ac77d4012ce94cd394135b722c4e25ec297f1cb Cu_pv/POTCAR          
   COPYR  = (c) Copyright 06Sep2000 Georg Kresse                                                    
   COPYR  = This file is part of the software VASP. Any use, copying, and all other rights are regul
   COPYR  = If you do not have a valid VASP license, you may not use, copy or distribute this file. 
   VRHFIN =Cu: d10 p1                                                                               
   LEXCH  = PE                                                                                      
   EATOM  =  4120.1201 eV,  302.8203 Ry                                                             
                                                                                                    
   TITEL  = PAW_PBE Cu_pv 06Sep2000                                                                 
   LULTRA =        F    use ultrasoft PP ?                                                          
   IUNSCR =        1    unscreen: 0-lin 1-nonlin 2-no                                               
   RPACOR =    1.500    partial core radius                                                         
   POMASS =   63.546; ZVAL   =   17.000    mass and valenz                                          
   RCORE  =    2.000    outmost cutoff radius                                                       
   RWIGS  =    2.000; RWIGS  =    1.058    wigner-seitz radius (au A)                               
   ENMAX  =  368.648; ENMIN  =  276.486 eV                                                          
   RCLOC  =    1.304    cutoff for local pot                                                        
   LCOR   =        T    correct aug charges                                                         
   LPAW   =        T    paw PP                                                                      
   EAUG   =  758.233                                                                                
   DEXC   =    0.000                                                                                
   RMAX   =    2.046    core radius for proj-oper                                                   
   RAUG   =    1.300    factor for augmentation sphere                                              
   RDEP   =    2.025    radius for radial grids                                                     
   RDEPT  =    1.558    core radius for aug-charge                                                  
                                                                                                    
   Atomic configuration                                                                             
    8 entries                                                                                       
     n  l   j            E        occ.                                                              
     1  0  0.50     -8850.2467   2.0000                                                             
     2  0  0.50     -1062.3498   2.0000                                                             
     2  1  1.50      -916.8226   6.0000                                                             
     3  0  0.50      -114.6929   2.0000                                                             
     3  1  1.50       -72.1325   6.0000                                                             
     3  2  2.50        -5.0394  10.0000                                                             
     4  0  0.50        -4.6097   1.0000                                                             
     4  3  2.50        -1.3606   0.0000                                                             
   Description                                                                                      
     l       E           TYP  RCUT    TYP  RCUT                                                     
     1    -72.1324777     23  1.700                                                                 
     1     -1.3605826     23  1.700                                                                 
     2     -5.0393776     23  2.000                                                                 
     2     -6.3999602     23  2.000                                                                 
     0     -4.6097062     23  1.800                                                                 
     0     14.1620818     23  1.800                                                                 
  local pseudopotential read in
  partial core-charges read in
  partial kinetic energy density read in
  atomic valenz-charges read in
  non local Contribution for L=           1  read in
    real space projection operators read in
  non local Contribution for L=           1  read in
    real space projection operators read in
  non local Contribution for L=           2  read in
    real space projection operators read in
  non local Contribution for L=           2  read in
    real space projection operators read in
  non local Contribution for L=           0  read in
    real space projection operators read in
  non local Contribution for L=           0  read in
    real space projection operators read in
    PAW grid and wavefunctions read in
 
   number of l-projection  operators is LMAX  =           6
   number of lm-projection operators is LMMAX =          18
 
 POTCAR:    PAW_PBE Pd 04Jan2005                  
   SHA256 =  dd6f6f02930356371984e2b707ff5e456046761dc76b07c1eba30abd15eb3c39 Pd/POTCAR             
   COPYR  = (c) Copyright 04Jan2005 Georg Kresse                                                    
   COPYR  = This file is part of the software VASP. Any use, copying, and all other rights are regul
   COPYR  = If you do not have a valid VASP license, you may not use, copy or distribute this file. 
   VRHFIN =Pd : s1 d9                                                                               
   LEXCH  = PE                                                                                      
   EATOM  =   809.7530 eV,   59.5152 Ry                                                             
                                                                                                    
   TITEL  = PAW_PBE Pd 04Jan2005                                                                    
   LULTRA =        F    use ultrasoft PP ?                                                          
   IUNSCR =        1    unscreen: 0-lin 1-nonlin 2-no                                               
   RPACOR =    2.000    partial core radius                                                         
   POMASS =  106.420; ZVAL   =   10.000    mass and valenz                                          
   RCORE  =    2.600    outmost cutoff radius                                                       
   RWIGS  =    2.710; RWIGS  =    1.434    wigner-seitz radius (au A)                               
   ENMAX  =  250.925; ENMIN  =  188.194 eV                                                          
   ICORE  =        3    local potential                                                             
   LCOR   =        T    correct aug charges                                                         
   LPAW   =        T    paw PP                                                                      
   EAUG   =  416.230                                                                                
   DEXC   =    0.000                                                                                
   RMAX   =    2.653    core radius for proj-oper                                                   
   RAUG   =    1.300    factor for augmentation sphere                                              
   RDEP   =    2.734    radius for radial grids                                                     
   RDEPT  =    2.103    core radius for aug-charge                                                  
                                                                                                    
   Atomic configuration                                                                             
   12 entries                                                                                       
     n  l   j            E        occ.                                                              
     1  0  0.50    -24164.6631   2.0000                                                             
     2  0  0.50     -3530.9218   2.0000                                                             
     2  1  1.50     -3165.6822   6.0000                                                             
     3  0  0.50      -639.4577   2.0000                                                             
     3  1  1.50      -519.4532   6.0000                                                             
     3  2  2.50      -328.9757  10.0000                                                             
     4  0  0.50       -88.7014   2.0000                                                             
     4  1  1.50       -54.4540   6.0000                                                             
     4  2  2.50        -6.6878   9.0000                                                             
     5  0  0.50        -4.3543   1.0000                                                             
     5  1  0.50        -1.3606   0.0000                                                             
     4  3  2.50        -1.3606   0.0000                                                             
   Description                                                                                      
     l       E           TYP  RCUT    TYP  RCUT                                                     
     2     -6.6878251     23  2.400                                                                 
     2     -8.0484077     23  2.400                                                                 
     0     -4.3542939     23  2.400                                                                 
     0      4.3406793     23  2.400                                                                 
     1     -4.0817478     23  2.600                                                                 
     1     15.8380318     23  2.600                                                                 
     3     -4.0817478     23  2.400                                                                 
  local pseudopotential read in
  partial core-charges read in
  partial kinetic energy density read in
  atomic valenz-charges read in
  non local Contribution for L=           2  read in
    real space projection operators read in
  non local Contribution for L=           2  read in
    real space projection operators read in
  non local Contribution for L=           0  read in
    real space projection operators read in
  non local Contribution for L=           0  read in
    real space projection operators read in
  non local Contribution for L=           1  read in
    real space projection operators read in
  non local Contribution for L=           1  read in
    real space projection operators read in
    PAW grid and wavefunctions read in
 
   number of l-projection  operators is LMAX  =           6
   number of lm-projection operators is LMMAX =          18
 
 POTCAR:    PAW_PBE Y_sv 25May2007                
   SHA256 =  5e7f7496c6fa99024fec326bcd60dcee8ff7e886f9613d31da35c685a538a036 Y_sv/POTCAR           
   COPYR  = (c) Copyright 25May2007 Georg Kresse                                                    
   COPYR  = This file is part of the software VASP. Any use, copying, and all other rights are regul
   COPYR  = If you do not have a valid VASP license, you may not use, copy or distribute this file. 
   VRHFIN =Y: 4s4p5s4d                                                                              
   LEXCH  = PE                                                                                      
   EATOM  =  1046.9140 eV,   76.9460 Ry                                                             
                                                                                                    
   TITEL  = PAW_PBE Y_sv 25May2007                                                                  
   LULTRA =        F    use ultrasoft PP ?                                                          
   IUNSCR =        1    unscreen: 0-lin 1-nonlin 2-no                                               
   RPACOR =    2.200    partial core radius                                                         
   POMASS =   88.906; ZVAL   =   11.000    mass and valenz                                          
   RCORE  =    2.800    outmost cutoff radius                                                       
   RWIGS  =    3.430; RWIGS  =    1.815    wigner-seitz radius (au A)                               
   ENMAX  =  202.626; ENMIN  =  151.970 eV                                                          
   RCLOC  =    2.212    cutoff for local pot                                                        
   LCOR   =        T    correct aug charges                                                         
   LPAW   =        T    paw PP                                                                      
   EAUG   =  470.889                                                                                
   DEXC   =    0.000                                                                                
   RMAX   =    2.863    core radius for proj-oper                                                   
   RAUG   =    1.300    factor for augmentation sphere                                              
   RDEP   =    2.926    radius for radial grids                                                     
   RDEPT  =    2.280    core radius for aug-charge                                                  
                                                                                                    
   Atomic configuration                                                                             
   11 entries                                                                                       
     n  l   j            E        occ.                                                              
     1  0  0.50    -16863.0720   2.0000                                                             
     2  0  0.50     -2309.2881   2.0000                                                             
     2  1  1.50     -2055.5536   6.0000                                                             
     3  0  0.50      -367.1837   2.0000                                                             
     3  1  1.50      -284.8912   6.0000                                                             
     3  2  2.50      -149.4324  10.0000                                                             
     4  0  0.50       -46.3345   2.0000                                                             
     5  0  0.50        -3.6387   1.0000                                                             
     4  1  1.50       -26.3769   6.0000                                                             
     4  2  2.50        -1.6291   2.0000                                                             
     4  3  2.50        -1.3606   0.0000                                                             
   Description                                                                                      
     l       E           TYP  RCUT    TYP  RCUT                                                     
     0    -46.3344714     23  2.600                                                                 
     0     -3.6387002     23  2.700                                                                 
     1    -26.3769044     23  2.600                                                                 
     1    -27.7374870     23  2.600                                                                 
     2     -1.6291019     23  2.600                                                                 
     2      0.1354037     23  2.600                                                                 
     3     -1.3605826     23  2.800                                                                 
  local pseudopotential read in
  partial core-charges read in
  partial kinetic energy density read in
  atomic valenz-charges read in
  non local Contribution for L=           0  read in
    real space projection operators read in
  non local Contribution for L=           0  read in
    real space projection operators read in
  non local Contribution for L=           1  read in
    real space projection operators read in
  non local Contribution for L=           1  read in
    real space projection operators read in
  non local Contribution for L=           2  read in
    real space projection operators read in
  non local Contribution for L=           2  read in
    real space projection operators read in
  non local Contribution for L=           3  read in
    real space projection operators read in
    PAW grid and wavefunctions read in
 
   number of l-projection  operators is LMAX  =           7
   number of lm-projection operators is LMMAX =          25
 
 Optimization of the real space projectors (new method)

 maximal supplied QI-value         = 18.90
 optimisation between [QCUT,QGAM] = [ 11.53, 23.24] = [ 37.21,151.29] Ry 
 Optimized for a Real-space Cutoff    1.36 Angstroem

   l    n(q)    QCUT    max X(q) W(low)/X(q) W(high)/X(q)  e(spline) 
   1      9    11.527     3.172    0.21E-04    0.38E-04    0.11E-06
   1      9    11.527     4.083    0.67E-04    0.79E-04    0.20E-06
   2      9    11.527    65.342    0.13E-03    0.28E-03    0.26E-06
   2      9    11.527    61.381    0.13E-03    0.29E-03    0.26E-06
   0      9    11.527    65.742    0.32E-04    0.21E-04    0.72E-07
   0      9    11.527    30.431    0.28E-04    0.19E-04    0.65E-07
 Optimization of the real space projectors (new method)

 maximal supplied QI-value         = 14.36
 optimisation between [QCUT,QGAM] = [ 11.63, 23.27] = [ 37.90,151.59] Ry 
 Optimized for a Real-space Cutoff    1.49 Angstroem

   l    n(q)    QCUT    max X(q) W(low)/X(q) W(high)/X(q)  e(spline) 
   2      9    11.633    59.108    0.81E-04    0.17E-04    0.26E-06
   2      9    11.633    58.101    0.82E-04    0.18E-04    0.27E-06
   0     10    11.633   102.235    0.26E-04    0.16E-04    0.21E-06
   0     10    11.633    58.388    0.23E-04    0.15E-04    0.20E-06
   1     10    11.633    22.191    0.10E-03    0.20E-03    0.14E-06
   1     10    11.633    15.590    0.86E-04    0.17E-03    0.12E-06
 Optimization of the real space projectors (new method)

 maximal supplied QI-value         = 13.42
 optimisation between [QCUT,QGAM] = [ 11.67, 23.35] = [ 38.16,152.62] Ry 
 Optimized for a Real-space Cutoff    1.68 Angstroem

   l    n(q)    QCUT    max X(q) W(low)/X(q) W(high)/X(q)  e(spline) 
   0     12    11.673    14.902    0.22E-04    0.24E-05    0.52E-07
   0     12    11.673     9.294    0.34E-04    0.58E-05    0.89E-07
   1     11    11.673    69.520    0.10E-04    0.47E-04    0.49E-06
   1     11    11.673    72.085    0.10E-04    0.48E-04    0.50E-06
   2     11    11.673    62.934    0.94E-04    0.14E-04    0.82E-06
   2     11    11.673    49.749    0.91E-04    0.13E-04    0.79E-06
   3     10    11.673     8.311    0.92E-04    0.21E-04    0.59E-06
  PAW_PBE Cu_pv 06Sep2000               :
 energy of atom  1       EATOM=-4120.1201
 kinetic energy error for atom=    0.0541 (will be added to EATOM!!)
  PAW_PBE Pd 04Jan2005                  :
 energy of atom  2       EATOM= -809.7530
 kinetic energy error for atom=    0.0045 (will be added to EATOM!!)
  PAW_PBE Y_sv 25May2007                :
 energy of atom  3       EATOM=-1046.9140
 kinetic energy error for atom=    0.0008 (will be added to EATOM!!)
 
 
 POSCAR: Cu9 Pd6 Y1
  positions in direct lattice
  velocities in cartesian coordinates


 exchange-correlation table for PE
   RHO(1)=    0.500       N(1)  =     2000
   RHO(2)=  100.500       N(2)  =     4000

 VTST: version 4.1, (05/19/21)

 CHAIN: initializing optimizer
 
 OPT: Using VASP Conjugate-Gradient optimizer
 CHAIN: Read ICHAIN            0
 
 POSCAR: Cu9 Pd6 Y1
  positions in direct lattice
  velocities in cartesian coordinates
 


--------------------------------------------------------------------------------------------------------


 ion  position               nearest neighbor table
   1  0.991  0.991  0.989-  15 2.55  13 2.61  11 2.61  14 2.65  12 2.71  10 2.71  16 2.77
   2  0.991  0.991  0.511-  15 2.55  13 2.61  11 2.61  14 2.65  12 2.71  10 2.71  16 2.77
   3  0.991  0.509  0.989-  15 2.55  13 2.61  11 2.61  14 2.65  12 2.71  10 2.71  16 2.77
   4  0.991  0.509  0.511-  15 2.55  13 2.61  11 2.61  14 2.65  12 2.71  10 2.71  16 2.77
   5  0.509  0.991  0.989-  15 2.55  13 2.61  11 2.61  14 2.65  12 2.71  10 2.71  16 2.77
   6  0.509  0.991  0.511-  15 2.55  13 2.61  11 2.61  14 2.65  12 2.71  10 2.71  16 2.77
   7  0.509  0.509  0.989-  15 2.55  13 2.61  11 2.61  14 2.65  12 2.71  10 2.71  16 2.77
   8  0.509  0.509  0.511-  15 2.55  13 2.61  11 2.61  14 2.65  12 2.71  10 2.71  16 2.77
   9  0.250  0.250  0.750-  11 2.86  13 2.86  11 2.86  13 2.86
  10  0.250  0.750  0.250-   1 2.71   2 2.71   3 2.71   4 2.71   5 2.71   6 2.71   7 2.71   8 2.71
                            14 2.86  16 2.86  16 2.86  14 2.86
  11  0.250  0.750  0.750-   1 2.61   2 2.61   3 2.61   4 2.61   5 2.61   6 2.61   7 2.61   8 2.61
                             9 2.86  15 2.86   9 2.86  15 2.86
  12  0.750  0.250  0.250-   1 2.71   2 2.71   3 2.71   4 2.71   5 2.71   6 2.71   7 2.71   8 2.71
                            14 2.86  16 2.86  14 2.86  16 2.86
  13  0.750  0.250  0.750-   1 2.61   2 2.61   3 2.61   4 2.61   5 2.61   6 2.61   7 2.61   8 2.61
                             9 2.86  15 2.86  15 2.86   9 2.86
  14  0.750  0.750  0.250-   1 2.65   2 2.65   3 2.65   4 2.65   5 2.65   6 2.65   7 2.65   8 2.65
                            10 2.86  12 2.86  12 2.86  10 2.86
  15  0.750  0.750  0.750-   1 2.55   2 2.55   3 2.55   4 2.55   5 2.55   6 2.55   7 2.55   8 2.55
                            11 2.86  13 2.86  13 2.86  11 2.86
  16  0.250  0.250  0.250-   1 2.77   2 2.77   3 2.77   4 2.77   5 2.77   6 2.77   7 2.77   8 2.77
                            10 2.86  12 2.86  10 2.86  12 2.86
 
  LATTYP: Found a simple tetragonal cell.
 ALAT       =     5.7274237723
 C/A-ratio  =     1.2040334039
  
  Lattice vectors:
  
 A1 = (   5.7274237723,  -0.0000000000,   0.0000000000)
 A2 = (   0.0000000000,   5.7274237723,   0.0000000000)
 A3 = (   0.0000000000,   0.0000000000,   6.8960095403)


Analysis of symmetry for initial positions (statically):
=====================================================================
 Subroutine PRICEL returns:
 Original cell was already a primitive cell.
 

 Routine SETGRP: Setting up the symmetry group for a 
 simple tetragonal supercell.


 Subroutine GETGRP returns: Found 16 space group operations
 (whereof  2 operations were pure point group operations)
 out of a pool of 16 trial point group operations.


The static configuration has the point symmetry C_1h.
 The point group associated with its full space group is D_4h.


Analysis of symmetry for dynamics (positions and initial velocities):
=====================================================================
 Subroutine PRICEL returns:
 Original cell was already a primitive cell.
 

 Routine SETGRP: Setting up the symmetry group for a 
 simple tetragonal supercell.


 Subroutine GETGRP returns: Found 16 space group operations
 (whereof  2 operations were pure point group operations)
 out of a pool of 16 trial point group operations.


The dynamic configuration has the point symmetry C_1h.
 The point group associated with its full space group is D_4h.


Analysis of structural, dynamic, and magnetic symmetry:
=====================================================================
 Subroutine PRICEL returns:
 Original cell was already a primitive cell.
 

 Routine SETGRP: Setting up the symmetry group for a 
 simple tetragonal supercell.


 Subroutine GETGRP returns: Found 16 space group operations
 (whereof  2 operations were pure point group operations)
 out of a pool of 16 trial point group operations.


The overall configuration has the point symmetry C_1h.
 The point group associated with its full space group is D_4h.


 Subroutine INISYM returns: Found 16 space group operations
 (whereof  2 operations are pure point group operations),
 and found     1 'primitive' translations


----------------------------------------------------------------------------------------

                                     Primitive cell                                     

  volume of cell :     226.2124

  direct lattice vectors                    reciprocal lattice vectors
     5.727423772 -0.000000000  0.000000000     0.174598570  0.000000000  0.000000000
     0.000000000  5.727423772  0.000000000     0.000000000  0.174598570  0.000000000
     0.000000000  0.000000000  6.896009540     0.000000000  0.000000000  0.145011400

  length of vectors
     5.727423772  5.727423772  6.896009540     0.174598570  0.174598570  0.145011400

  position of ions in fractional coordinates (direct lattice)
     0.990592307  0.990592307  0.988693749
     0.990592307  0.990592307  0.511306251
     0.990592307  0.509407693  0.988693749
     0.990592307  0.509407693  0.511306251
     0.509407693  0.990592307  0.988693749
     0.509407693  0.990592307  0.511306251
     0.509407693  0.509407693  0.988693749
     0.509407693  0.509407693  0.511306251
     0.250000000  0.250000000  0.750000000
     0.250000000  0.750000000  0.250000000
     0.250000000  0.750000000  0.750000000
     0.750000000  0.250000000  0.250000000
     0.750000000  0.250000000  0.750000000
     0.750000000  0.750000000  0.250000000
     0.750000000  0.750000000  0.750000000
     0.250000000  0.250000000  0.250000000

  ion indices of the primitive-cell ions
   primitive index   ion index
                 1           1
                 2           2
                 3           3
                 4           4
                 5           5
                 6           6
                 7           7
                 8           8
                 9           9
                10          10
                11          11
                12          12
                13          13
                14          14
                15          15
                16          16

----------------------------------------------------------------------------------------

 
 
 KPOINTS: K-Spacing Value to Generate K-Mesh: 0.03

Automatic generation of k-mesh.
 Grid dimensions read from file:
 generate k-points for:    4    4    4

 Generating k-lattice:

  Cartesian coordinates                     Fractional coordinates (reciprocal lattice)
     0.043649642  0.000000000  0.000000000     0.250000000  0.000000000  0.000000000
     0.000000000  0.043649642  0.000000000    -0.000000000  0.250000000  0.000000000
     0.000000000  0.000000000  0.036252850     0.000000000  0.000000000  0.250000000

  Length of vectors
     0.043649642  0.043649642  0.036252850

  Shift w.r.t. Gamma in fractional coordinates (k-lattice)
     0.500000000  0.500000000  0.500000000

 
 Subroutine IBZKPT returns following result:
 ===========================================
 
 Found      6 irreducible k-points:
 
 Following reciprocal coordinates:
            Coordinates               Weight
  0.125000  0.125000  0.125000      8.000000
  0.375000  0.125000  0.125000     16.000000
  0.375000  0.375000  0.125000      8.000000
  0.125000  0.125000  0.375000      8.000000
  0.375000  0.125000  0.375000     16.000000
  0.375000  0.375000  0.375000      8.000000
 
 Following cartesian coordinates:
            Coordinates               Weight
  0.021825  0.021825  0.018126      8.000000
  0.065474  0.021825  0.018126     16.000000
  0.065474  0.065474  0.018126      8.000000
  0.021825  0.021825  0.054379      8.000000
  0.065474  0.021825  0.054379     16.000000
  0.065474  0.065474  0.054379      8.000000
 


--------------------------------------------------------------------------------------------------------




 Dimension of arrays:
   k-points           NKPTS =      6   k-points in BZ     NKDIM =      6   number of bands    NBANDS=    144
   number of dos      NEDOS =    301   number of ions     NIONS =     16
   non local maximal  LDIM  =      7   non local SUM 2l+1 LMDIM =     25
   total plane-waves  NPLWV = 124416
   max r-space proj   IRMAX =  10896   max aug-charges    IRDMAX=  39845
   dimension x,y,z NGX =    48 NGY =   48 NGZ =   54
   dimension x,y,z NGXF=    96 NGYF=   96 NGZF=  108
   support grid    NGXF=    96 NGYF=   96 NGZF=  108
   ions per type =               9   6   1
   NGX,Y,Z   is equivalent  to a cutoff of  13.93, 13.93, 13.02 a.u.
   NGXF,Y,Z  is equivalent  to a cutoff of  27.87, 27.87, 26.04 a.u.

 SYSTEM =  Cu9Pd6Y1 static calculation             
 POSCAR =  Cu9 Pd6 Y1                              

 Startparameter for this run:
   NWRITE =      2    write-flag & timer
   PREC   = accura    normal or accurate (medium, high low for compatibility)
   ISTART =      0    job   : 0-new  1-cont  2-samecut
   ICHARG =      2    charge: 1-file 2-atom 10-const
   ISPIN  =      2    spin polarized calculation?
   LNONCOLLINEAR =      F non collinear calculations
   LSORBIT =      F    spin-orbit coupling
   INIWAV =      1    electr: 0-lowe 1-rand  2-diag
   LASPH  =      T    aspherical Exc in radial PAW
 Electronic Relaxation 1
   ENCUT  =  520.0 eV  38.22 Ry    6.18 a.u.  10.65 10.65 12.82*2*pi/ulx,y,z
   ENINI  =  520.0     initial cutoff
   ENAUG  =  758.2 eV  augmentation charge cutoff
   NELM   =    100;   NELMIN=  2; NELMDL=  0     # of ELM steps 
   EDIFF  = 0.1E-05   stopping-criterion for ELM
   LREAL  =      T    real-space projection
   NLSPLINE    = F    spline interpolate recip. space projectors
   LCOMPAT=      F    compatible to vasp.4.4
   GGA_COMPAT  = T    GGA compatible to vasp.4.4-vasp.4.6
   LMAXPAW     = -100 max onsite density
   LMAXMIX     =    4 max onsite mixed and CHGCAR
   VOSKOWN=      0    Vosko Wilk Nusair interpolation
   ROPT   =   -0.00025  -0.00025  -0.00025
 Ionic relaxation
   EDIFFG = -.1E-02   stopping-criterion for IOM
   NSW    =      0    number of steps for IOM
   NBLOCK =      1;   KBLOCK =      1    inner block; outer block 
   IBRION =     -1    ionic relax: 0-MD 1-quasi-New 2-CG
   NFREE  =      1    steps in history (QN), initial steepest desc. (CG)
   ISIF   =      3    stress and relaxation
   IWAVPR =     10    prediction:  0-non 1-charg 2-wave 3-comb
   ISYM   =      2    0-nonsym 1-usesym 2-fastsym
   LCORR  =      T    Harris-Foulkes like correction to forces

   POTIM  = 0.5000    time-step for ionic-motion
   TEIN   =    0.0    initial temperature
   TEBEG  =    0.0;   TEEND  =   0.0 temperature during run
   SMASS  =  -3.00    Nose mass-parameter (am)
   estimated Nose-frequenzy (Omega)   =  0.10E-29 period in steps = 0.13E+47 mass=  -0.750E-27a.u.
   SCALEE = 1.0000    scale energy and forces
   NPACO  =    256;   APACO  = 10.0  distance and # of slots for P.C.
   PSTRESS=    0.0 pullay stress

  Mass of Ions in am
   POMASS =  63.55106.42 88.91
  Ionic Valenz
   ZVAL   =  17.00 10.00 11.00
  Atomic Wigner-Seitz radii
   RWIGS  =  -1.00 -1.00 -1.00
  virtual crystal weights 
   VCA    =   1.00  1.00  1.00
   NELECT =     224.0000    total number of electrons
   NUPDOWN=      -1.0000    fix difference up-down

 DOS related values:
   EMIN   =  10.00;   EMAX   =-10.00  energy-range for DOS
   EFERMI =   0.00;   METHOD = LEGACY      
   ISMEAR =     1;   SIGMA  =   0.20  broadening in eV -4-tet -1-fermi 0-gaus

 Electronic relaxation 2 (details)
   IALGO  =     38    algorithm
   LDIAG  =      T    sub-space diagonalisation (order eigenvalues)
   LSUBROT=      F    optimize rotation matrix (better conditioning)
   TURBO    =      0    0=normal 1=particle mesh
   IRESTART =      0    0=no restart 2=restart with 2 vectors
   NREBOOT  =      0    no. of reboots
   NMIN     =      0    reboot dimension
   EREF     =   0.00    reference energy to select bands
   IMIX   =      4    mixing-type and parameters
     AMIX     =   0.40;   BMIX     =  1.00
     AMIX_MAG =   1.60;   BMIX_MAG =  1.00
     AMIN     =   0.10
     WC   =   100.;   INIMIX=   1;  MIXPRE=   1;  MAXMIX= -45

 Intra band minimization:
   WEIMIN = 0.0000     energy-eigenvalue tresh-hold
   EBREAK =  0.17E-08  absolut break condition
   DEPER  =   0.30     relativ break condition  

   TIME   =   0.40     timestep for ELM

  volume/ion in A,a.u.               =      14.14        95.41
  Fermi-wavevector in a.u.,A,eV,Ry     =   1.631744  3.083549 36.226713  2.662588
  Thomas-Fermi vector in A             =   2.723829
 
 Write flags
   LWAVE        =      F    write WAVECAR
   LDOWNSAMPLE  =      F    k-point downsampling of WAVECAR
   LCHARG       =      T    write CHGCAR
   LVTOT        =      F    write LOCPOT, total local potential
   LVHAR        =      F    write LOCPOT, Hartree potential only
   WRT_POTENTIAL= false  ! write potential to hdf5 file
   LELF         =      F    write electronic localiz. function (ELF)
   LORBIT       =     11    0 simple, 1 ext, 2 COOP (PROOUT), +10 PAW based schemes


 Dipole corrections
   LMONO      =      F    monopole corrections only (constant potential shift)
   LDIPOL     =      F    correct potential (dipole corrections)
   IDIPOL     =      0    1-x, 2-y, 3-z, 4-all directions 
   EPSILON    =  1.0000000 bulk dielectric constant
   LVACPOTAV  =      F  vacuum potentials using an averaging scheme for the charge density
   VACPOTFLAT =  0.1000000 required flatness to determine vacuum potential
 Exchange correlation treatment:
   GGA     = PE    functional components
   XC_C    = 1    coefficients multiplying the functional components
   LIBXC   =     F    Libxc                    
   VOSKOWN =     0    Vosko Wilk Nusair interpolation
   LHFCALC =     F    Hartree Fock is set to
   LHFONE  =     F    Hartree Fock one center treatment
   AEXX    =    0.0000 exact exchange contribution

 Parameters of functionals:
   PE:
     No parameter
 
 Van der Waals corrections
   IVDW    =     0    specifies the selected vdW correction

 Linear response parameters
   LEPSILON=     F    determine dielectric tensor
   LRPA    =     F    only Hartree local field effects (RPA)
   LNABLA  =     F    use nabla operator in PAW spheres
   LVEL    =     F    velocity operator in full k-point grid
   CSHIFT  =0.1000    complex shift for real part using Kramers Kronig
   OMEGAMAX=  -1.0    maximum frequency
   DEG_THRESHOLD= 0.2000000E-02 threshold for treating states as degnerate
   RTIME   =   -0.100 relaxation time in fs
  (WPLASMAI=    0.000 imaginary part of plasma frequency in eV, 0.658/RTIME)
   DFIELD  = 0.0000000 0.0000000 0.0000000 field for delta impulse in time
 
  Optional k-point grid parameters
   LKPOINTS_OPT  =     F    use optional k-point grid
   KPOINTS_OPT_MODE=     1    mode for optional k-point grid
 
 Orbital magnetization related:
   ORBITALMAG=     F  switch on orbital magnetization
   LCHIMAG   =     F  perturbation theory with respect to B field
   DQ        =  0.001000  dq finite difference perturbation B field
   LLRAUG    =     F  two centre corrections for induced B field
   LBONE     =     F  B-component reconstruction in AE one-centre
   LVGVCALC  =     T  calculate vGv susceptibility
   LVGVAPPL  =     F  apply vGv susceptibility instead of pGv for G=0

 Random number generation:
   RANDOM_GENERATOR = DEFAULT
   PCG_SEED         = not used


--------------------------------------------------------------------------------------------------------


 Static calculation
 charge density and potential will be updated during run
 spin polarized calculation
 Variant of blocked Davidson
 Davidson routine will perform the subspace rotation
 perform sub-space diagonalisation
    after iterative eigenvector-optimisation
 modified Broyden-mixing scheme, WC =      100.0
 initial mixing is a Kerker type mixing with AMIX =  0.4000 and BMIX =      1.0000
 Hartree-type preconditioning will be used
 using additional bands           32
 real space projection scheme for non local part
 use partial core corrections
 calculate Harris-corrections to forces 
   (improved forces if not selfconsistent)
 use gradient corrections 
 use of overlap-Matrix (Vanderbilt PP)
 Methfessel and Paxton  Order N= 1 SIGMA  =   0.20


--------------------------------------------------------------------------------------------------------


  energy-cutoff  :      520.00
  volume of cell :      226.21
      direct lattice vectors                 reciprocal lattice vectors
     5.727423772 -0.000000000  0.000000000     0.174598570  0.000000000  0.000000000
     0.000000000  5.727423772  0.000000000     0.000000000  0.174598570  0.000000000
     0.000000000  0.000000000  6.896009540     0.000000000  0.000000000  0.145011400

  length of vectors
     5.727423772  5.727423772  6.896009540     0.174598570  0.174598570  0.145011400


 
 k-points in units of 2pi/SCALE and weight: K-Spacing Value to Generate K-Mesh: 0.03
   0.02182482  0.02182482  0.01812643       0.125
   0.06547446  0.02182482  0.01812643       0.250
   0.06547446  0.06547446  0.01812643       0.125
   0.02182482  0.02182482  0.05437928       0.125
   0.06547446  0.02182482  0.05437928       0.250
   0.06547446  0.06547446  0.05437928       0.125
 
 k-points in reciprocal lattice and weights: K-Spacing Value to Generate K-Mesh: 0.03
   0.12500000  0.12500000  0.12500000       0.125
   0.37500000  0.12500000  0.12500000       0.250
   0.37500000  0.37500000  0.12500000       0.125
   0.12500000  0.12500000  0.37500000       0.125
   0.37500000  0.12500000  0.37500000       0.250
   0.37500000  0.37500000  0.37500000       0.125
 
 position of ions in fractional coordinates (direct lattice) 
   0.99059231  0.99059231  0.98869375
   0.99059231  0.99059231  0.51130625
   0.99059231  0.50940769  0.98869375
   0.99059231  0.50940769  0.51130625
   0.50940769  0.99059231  0.98869375
   0.50940769  0.99059231  0.51130625
   0.50940769  0.50940769  0.98869375
   0.50940769  0.50940769  0.51130625
   0.25000000  0.25000000  0.75000000
   0.25000000  0.75000000  0.25000000
   0.25000000  0.75000000  0.75000000
   0.75000000  0.25000000  0.25000000
   0.75000000  0.25000000  0.75000000
   0.75000000  0.75000000  0.25000000
   0.75000000  0.75000000  0.75000000
   0.25000000  0.25000000  0.25000000
 
 position of ions in cartesian coordinates  (Angst):
   5.67354193  5.67354193  6.81804153
   5.67354193  5.67354193  3.52597278
   5.67354193  2.91759373  6.81804153
   5.67354193  2.91759373  3.52597278
   2.91759373  5.67354193  6.81804153
   2.91759373  5.67354193  3.52597278
   2.91759373  2.91759373  6.81804153
   2.91759373  2.91759373  3.52597278
   1.43185594  1.43185594  5.17200716
   1.43185594  4.29556783  1.72400239
   1.43185594  4.29556783  5.17200716
   4.29556783  1.43185594  1.72400239
   4.29556783  1.43185594  5.17200716
   4.29556783  4.29556783  1.72400239
   4.29556783  4.29556783  5.17200716
   1.43185594  1.43185594  1.72400239
 


--------------------------------------------------------------------------------------------------------


 k-point     1 :   0.1250 0.1250 0.1250  plane waves:    6099
 k-point     2 :   0.3750 0.1250 0.1250  plane waves:    6095
 k-point     3 :   0.3750 0.3750 0.1250  plane waves:    6071
 k-point     4 :   0.1250 0.1250 0.3750  plane waves:    6091
 k-point     5 :   0.3750 0.1250 0.3750  plane waves:    6099
 k-point     6 :   0.3750 0.3750 0.3750  plane waves:    6080

 maximum and minimum number of plane-waves per node :      1546     1502

 maximum number of plane-waves:      6099
 maximum index in each direction: 
   IXMAX=   10   IYMAX=   10   IZMAX=   12
   IXMIN=  -11   IYMIN=  -11   IZMIN=  -13


 real space projection operators:
  total allocation   :      15475.11 KBytes
  max/ min on nodes  :       3902.62       3855.62


 parallel 3D FFT for wavefunctions:
    minimum data exchange during FFTs selected (reduces bandwidth)
 parallel 3D FFT for charge:
    minimum data exchange during FFTs selected (reduces bandwidth)


 total amount of memory used by VASP MPI-rank0    47672. kBytes
=======================================================================

   base      :      30000. kBytes
   nonlr-proj:       7713. kBytes
   fftplans  :       1628. kBytes
   grid      :       4359. kBytes
   one-center:        240. kBytes
   wavefun   :       3732. kBytes
 
     INWAV:  cpu time      0.0000: real time      0.0002
 Broyden mixing: mesh for mixing (old mesh)
   NGX = 21   NGY = 21   NGZ = 25
  (NGX  = 96   NGY  = 96   NGZ  =108)
  gives a total of  11025 points

 initial charge density was supplied:
 charge density of overlapping atoms calculated
 number of electron     224.0000000 magnetization       9.6000000
 keeping initial charge density in first step


--------------------------------------------------------------------------------------------------------


 Maximum index for non-local projection operator         2658
 Maximum index for augmentation-charges          563 (set IRDMAX)


--------------------------------------------------------------------------------------------------------


 First call to EWALD:  gamma=   0.291
 Maximum number of real-space cells 3x 3x 2
 Maximum number of reciprocal cells 3x 3x 3

    FEWALD:  cpu time      0.0011: real time      0.0138


--------------------------------------- Ionic step        1  -------------------------------------------




--------------------------------------- Iteration      1(   1)  ---------------------------------------


    POTLOK:  cpu time      0.0294: real time      0.0345
    SETDIJ:  cpu time      0.9206: real time      0.9288
     EDDAV:  cpu time      3.0791: real time      3.5003
       DOS:  cpu time      0.0019: real time      0.0029
    --------------------------------------------
      LOOP:  cpu time      4.0309: real time      4.4665

 eigenvalue-minimisations  :  4044
 total energy-change (2. order) : 0.2875232E+04  (-0.1342596E+05)
 number of electron     224.0000000 magnetization       9.6000000
 augmentation part      224.0000000 magnetization       9.6000000

 Free energy of the ion-electron system (eV)
  ---------------------------------------------------
  alpha Z        PSCENC =      1539.35162122
  Ewald energy   TEWEN  =    -27655.99416997
  -Hartree energ DENC   =    -14445.54564625
  -exchange      EXHF   =         0.00000000
  -V(xc)+E(xc)   XCENC  =       842.44424471
  PAW double counting   =     36961.04583861   -37919.31422291
  entropy T*S    EENTRO =        -0.00627299
  eigenvalues    EBANDS =       567.25284003
  atomic energy  EATOM  =     42985.99789090
  Solvation  Ediel_sol  =         0.00000000
  ---------------------------------------------------
  free energy    TOTEN  =      2875.23212335 eV

  energy without entropy =     2875.23839634  energy(sigma->0) =     2875.23421435


--------------------------------------------------------------------------------------------------------




--------------------------------------- Iteration      1(   2)  ---------------------------------------


     EDDAV:  cpu time      2.6357: real time      2.6744
       DOS:  cpu time      0.0005: real time      0.0005
    --------------------------------------------
      LOOP:  cpu time      2.6362: real time      2.6749

 eigenvalue-minimisations  :  3456
 total energy-change (2. order) :-0.2720817E+04  (-0.2611107E+04)
 number of electron     224.0000000 magnetization       9.6000000
 augmentation part      224.0000000 magnetization       9.6000000

 Free energy of the ion-electron system (eV)
  ---------------------------------------------------
  alpha Z        PSCENC =      1539.35162122
  Ewald energy   TEWEN  =    -27655.99416997
  -Hartree energ DENC   =    -14445.54564625
  -exchange      EXHF   =         0.00000000
  -V(xc)+E(xc)   XCENC  =       842.44424471
  PAW double counting   =     36961.04583861   -37919.31422291
  entropy T*S    EENTRO =         0.01447646
  eigenvalues    EBANDS =     -2153.58502312
  atomic energy  EATOM  =     42985.99789090
  Solvation  Ediel_sol  =         0.00000000
  ---------------------------------------------------
  free energy    TOTEN  =       154.41500965 eV

  energy without entropy =      154.40053319  energy(sigma->0) =      154.41018416


--------------------------------------------------------------------------------------------------------




--------------------------------------- Iteration      1(   3)  ---------------------------------------


     EDDAV:  cpu time      2.8291: real time      2.8657
       DOS:  cpu time      0.0005: real time      0.0005
    --------------------------------------------
      LOOP:  cpu time      2.8296: real time      2.8662

 eigenvalue-minimisations  :  3768
 total energy-change (2. order) :-0.2279172E+03  (-0.2087072E+03)
 number of electron     224.0000000 magnetization       9.6000000
 augmentation part      224.0000000 magnetization       9.6000000

 Free energy of the ion-electron system (eV)
  ---------------------------------------------------
  alpha Z        PSCENC =      1539.35162122
  Ewald energy   TEWEN  =    -27655.99416997
  -Hartree energ DENC   =    -14445.54564625
  -exchange      EXHF   =         0.00000000
  -V(xc)+E(xc)   XCENC  =       842.44424471
  PAW double counting   =     36961.04583861   -37919.31422291
  entropy T*S    EENTRO =        -0.00455756
  eigenvalues    EBANDS =     -2381.48322586
  atomic energy  EATOM  =     42985.99789090
  Solvation  Ediel_sol  =         0.00000000
  ---------------------------------------------------
  free energy    TOTEN  =       -73.50222711 eV

  energy without entropy =      -73.49766955  energy(sigma->0) =      -73.50070792


--------------------------------------------------------------------------------------------------------




--------------------------------------- Iteration      1(   4)  ---------------------------------------


     EDDAV:  cpu time      3.4761: real time      3.5209
       DOS:  cpu time      0.0005: real time      0.0005
    --------------------------------------------
      LOOP:  cpu time      3.4766: real time      3.5214

 eigenvalue-minimisations  :  4788
 total energy-change (2. order) :-0.1078303E+02  (-0.1059471E+02)
 number of electron     224.0000000 magnetization       9.6000000
 augmentation part      224.0000000 magnetization       9.6000000

 Free energy of the ion-electron system (eV)
  ---------------------------------------------------
  alpha Z        PSCENC =      1539.35162122
  Ewald energy   TEWEN  =    -27655.99416997
  -Hartree energ DENC   =    -14445.54564625
  -exchange      EXHF   =         0.00000000
  -V(xc)+E(xc)   XCENC  =       842.44424471
  PAW double counting   =     36961.04583861   -37919.31422291
  entropy T*S    EENTRO =        -0.00507921
  eigenvalues    EBANDS =     -2392.26573429
  atomic energy  EATOM  =     42985.99789090
  Solvation  Ediel_sol  =         0.00000000
  ---------------------------------------------------
  free energy    TOTEN  =       -84.28525720 eV

  energy without entropy =      -84.28017798  energy(sigma->0) =      -84.28356413


--------------------------------------------------------------------------------------------------------




--------------------------------------- Iteration      1(   5)  ---------------------------------------


     EDDAV:  cpu time      3.3542: real time      3.3990
       DOS:  cpu time      0.0005: real time      0.0005
    CHARGE:  cpu time      0.0751: real time      0.1006
    MIXING:  cpu time      0.0027: real time      0.0028
    --------------------------------------------
      LOOP:  cpu time      3.4326: real time      3.5029

 eigenvalue-minimisations  :  4656
 total energy-change (2. order) :-0.4611726E+00  (-0.4592479E+00)
 number of electron     223.9999809 magnetization       4.4309199
 augmentation part      118.4276768 magnetization       3.9969799

 Broyden mixing:
  rms(total) = 0.64416E+01    rms(broyden)= 0.64413E+01
  rms(prec ) = 0.76080E+01
  weight for this iteration     100.00

 Free energy of the ion-electron system (eV)
  ---------------------------------------------------
  alpha Z        PSCENC =      1539.35162122
  Ewald energy   TEWEN  =    -27655.99416997
  -Hartree energ DENC   =    -14445.54564625
  -exchange      EXHF   =         0.00000000
  -V(xc)+E(xc)   XCENC  =       842.44424471
  PAW double counting   =     36961.04583861   -37919.31422291
  entropy T*S    EENTRO =        -0.00647245
  eigenvalues    EBANDS =     -2392.72551368
  atomic energy  EATOM  =     42985.99789090
  Solvation  Ediel_sol  =         0.00000000
  ---------------------------------------------------
  free energy    TOTEN  =       -84.74642982 eV

  energy without entropy =      -84.73995737  energy(sigma->0) =      -84.74427234


--------------------------------------------------------------------------------------------------------




--------------------------------------- Iteration      1(   6)  ---------------------------------------


    POTLOK:  cpu time      0.0321: real time      0.0330
    SETDIJ:  cpu time      0.9246: real time      0.9323
     EDDAV:  cpu time      2.9001: real time      2.9382
       DOS:  cpu time      0.0005: real time      0.0005
    CHARGE:  cpu time      0.0776: real time      0.0784
    MIXING:  cpu time      0.0026: real time      0.1268
    --------------------------------------------
      LOOP:  cpu time      3.9374: real time      4.1092

 eigenvalue-minimisations  :  3828
 total energy-change (2. order) :-0.1234046E+02  (-0.1891835E+02)
 number of electron     223.9999794 magnetization       3.0855142
 augmentation part      128.2092556 magnetization       2.5070861

 Broyden mixing:
  rms(total) = 0.71428E+01    rms(broyden)= 0.71424E+01
  rms(prec ) = 0.83136E+01
  weight for this iteration     100.00

 eigenvalues of (default mixing * dielectric matrix)
  average eigenvalue GAMMA=   0.4562
  0.4562

 Free energy of the ion-electron system (eV)
  ---------------------------------------------------
  alpha Z        PSCENC =      1539.35162122
  Ewald energy   TEWEN  =    -27655.99416997
  -Hartree energ DENC   =    -13660.68962372
  -exchange      EXHF   =         0.00000000
  -V(xc)+E(xc)   XCENC  =       816.45904730
  PAW double counting   =     37033.87235429   -37944.20969465
  entropy T*S    EENTRO =         0.00472943
  eigenvalues    EBANDS =     -3211.87904529
  atomic energy  EATOM  =     42985.99789090
  Solvation  Ediel_sol  =         0.00000000
  ---------------------------------------------------
  free energy    TOTEN  =       -97.08689049 eV

  energy without entropy =      -97.09161992  energy(sigma->0) =      -97.08846696


--------------------------------------------------------------------------------------------------------




--------------------------------------- Iteration      1(   7)  ---------------------------------------


    POTLOK:  cpu time      0.0317: real time      0.0326
    SETDIJ:  cpu time      0.9341: real time      0.9429
     EDDAV:  cpu time      3.1566: real time      3.1984
       DOS:  cpu time      0.0006: real time      0.0006
    CHARGE:  cpu time      0.0765: real time      0.0774
    MIXING:  cpu time      0.0014: real time      0.0273
    --------------------------------------------
      LOOP:  cpu time      4.2009: real time      4.2791

 eigenvalue-minimisations  :  4188
 total energy-change (2. order) : 0.2162437E+02  (-0.5598140E+01)
 number of electron     223.9999796 magnetization       1.2412336
 augmentation part      126.8204779 magnetization       0.6347096

 Broyden mixing:
  rms(total) = 0.17025E+01    rms(broyden)= 0.17024E+01
  rms(prec ) = 0.20775E+01
  weight for this iteration     100.00

 eigenvalues of (default mixing * dielectric matrix)
  average eigenvalue GAMMA=   0.7923
  1.0566  0.5279

 Free energy of the ion-electron system (eV)
  ---------------------------------------------------
  alpha Z        PSCENC =      1539.35162122
  Ewald energy   TEWEN  =    -27655.99416997
  -Hartree energ DENC   =    -13946.02737160
  -exchange      EXHF   =         0.00000000
  -V(xc)+E(xc)   XCENC  =       825.66657319
  PAW double counting   =     38191.86600745   -39165.19372853
  entropy T*S    EENTRO =        -0.01237362
  eigenvalues    EBANDS =     -2851.11696899
  atomic energy  EATOM  =     42985.99789090
  Solvation  Ediel_sol  =         0.00000000
  ---------------------------------------------------
  free energy    TOTEN  =       -75.46251995 eV

  energy without entropy =      -75.45014633  energy(sigma->0) =      -75.45839541


--------------------------------------------------------------------------------------------------------




--------------------------------------- Iteration      1(   8)  ---------------------------------------


    POTLOK:  cpu time      0.0301: real time      0.0321
    SETDIJ:  cpu time      0.9387: real time      0.9470
     EDDAV:  cpu time      3.1508: real time      3.1927
       DOS:  cpu time      0.0008: real time      0.0008
    CHARGE:  cpu time      0.0772: real time      0.0779
    MIXING:  cpu time      0.0012: real time      0.0392
    --------------------------------------------
      LOOP:  cpu time      4.1987: real time      4.2897

 eigenvalue-minimisations  :  4176
 total energy-change (2. order) : 0.8808213E+00  (-0.1347250E+01)
 number of electron     223.9999800 magnetization       0.0225916
 augmentation part      123.8607694 magnetization      -0.2983390

 Broyden mixing:
  rms(total) = 0.17290E+01    rms(broyden)= 0.17288E+01
  rms(prec ) = 0.19194E+01
  weight for this iteration     100.00

 eigenvalues of (default mixing * dielectric matrix)
  average eigenvalue GAMMA=   0.9366
  1.7379  0.5359  0.5359

 Free energy of the ion-electron system (eV)
  ---------------------------------------------------
  alpha Z        PSCENC =      1539.35162122
  Ewald energy   TEWEN  =    -27655.99416997
  -Hartree energ DENC   =    -14096.00151443
  -exchange      EXHF   =         0.00000000
  -V(xc)+E(xc)   XCENC  =       830.63366512
  PAW double counting   =     38958.44998898   -39961.01226726
  entropy T*S    EENTRO =        -0.00870264
  eigenvalues    EBANDS =     -2675.99821056
  atomic energy  EATOM  =     42985.99789090
  Solvation  Ediel_sol  =         0.00000000
  ---------------------------------------------------
  free energy    TOTEN  =       -74.58169864 eV

  energy without entropy =      -74.57299600  energy(sigma->0) =      -74.57879776


--------------------------------------------------------------------------------------------------------




--------------------------------------- Iteration      1(   9)  ---------------------------------------


    POTLOK:  cpu time      0.0320: real time      0.0328
    SETDIJ:  cpu time      0.9328: real time      0.9419
     EDDAV:  cpu time      2.9433: real time      2.9797
       DOS:  cpu time      0.0006: real time      0.0006
    CHARGE:  cpu time      0.0767: real time      0.0774
    MIXING:  cpu time      0.0010: real time      0.0010
    --------------------------------------------
      LOOP:  cpu time      3.9862: real time      4.0333

 eigenvalue-minimisations  :  3960
 total energy-change (2. order) :-0.5975831E-01  (-0.3451713E+00)
 number of electron     223.9999800 magnetization      -0.7218775
 augmentation part      124.0617983 magnetization      -0.8247379

 Broyden mixing:
  rms(total) = 0.12807E+01    rms(broyden)= 0.12807E+01
  rms(prec ) = 0.15336E+01
  weight for this iteration     100.00

 eigenvalues of (default mixing * dielectric matrix)
  average eigenvalue GAMMA=   0.9657
  2.2046  0.5982  0.5982  0.4619

 Free energy of the ion-electron system (eV)
  ---------------------------------------------------
  alpha Z        PSCENC =      1539.35162122
  Ewald energy   TEWEN  =    -27655.99416997
  -Hartree energ DENC   =    -14066.34753364
  -exchange      EXHF   =         0.00000000
  -V(xc)+E(xc)   XCENC  =       829.60764515
  PAW double counting   =     39455.22456004   -40466.92411442
  entropy T*S    EENTRO =        -0.01510517
  eigenvalues    EBANDS =     -2695.54225106
  atomic energy  EATOM  =     42985.99789090
  Solvation  Ediel_sol  =         0.00000000
  ---------------------------------------------------
  free energy    TOTEN  =       -74.64145695 eV

  energy without entropy =      -74.62635178  energy(sigma->0) =      -74.63642189


--------------------------------------------------------------------------------------------------------




--------------------------------------- Iteration      1(  10)  ---------------------------------------


    POTLOK:  cpu time      0.0282: real time      0.0319
    SETDIJ:  cpu time      0.9256: real time      0.9310
     EDDAV:  cpu time      3.0714: real time      3.1135
       DOS:  cpu time      0.0006: real time      0.0006
    CHARGE:  cpu time      0.0784: real time      0.0793
    MIXING:  cpu time      0.0009: real time      0.0009
    --------------------------------------------
      LOOP:  cpu time      4.1052: real time      4.1573

 eigenvalue-minimisations  :  4092
 total energy-change (2. order) : 0.3644732E+00  (-0.9117339E-01)
 number of electron     223.9999800 magnetization      -0.5319183
 augmentation part      124.6135952 magnetization      -0.4576242

 Broyden mixing:
  rms(total) = 0.66144E+00    rms(broyden)= 0.66142E+00
  rms(prec ) = 0.80004E+00
  weight for this iteration     100.00

 eigenvalues of (default mixing * dielectric matrix)
  average eigenvalue GAMMA=   1.0393
  2.5814  0.9614  0.6226  0.6226  0.4086

 Free energy of the ion-electron system (eV)
  ---------------------------------------------------
  alpha Z        PSCENC =      1539.35162122
  Ewald energy   TEWEN  =    -27655.99416997
  -Hartree energ DENC   =    -14023.02851302
  -exchange      EXHF   =         0.00000000
  -V(xc)+E(xc)   XCENC  =       828.28597853
  PAW double counting   =     39831.84068312   -40847.56047930
  entropy T*S    EENTRO =        -0.01902124
  eigenvalues    EBANDS =     -2733.15097398
  atomic energy  EATOM  =     42985.99789090
  Solvation  Ediel_sol  =         0.00000000
  ---------------------------------------------------
  free energy    TOTEN  =       -74.27698373 eV

  energy without entropy =      -74.25796250  energy(sigma->0) =      -74.27064332


--------------------------------------------------------------------------------------------------------




--------------------------------------- Iteration      1(  11)  ---------------------------------------


    POTLOK:  cpu time      0.0314: real time      0.0322
    SETDIJ:  cpu time      0.9413: real time      0.9498
     EDDAV:  cpu time      2.9143: real time      2.9521
       DOS:  cpu time      0.0005: real time      0.0006
    CHARGE:  cpu time      0.0752: real time      0.0759
    MIXING:  cpu time      0.0009: real time      0.0009
    --------------------------------------------
      LOOP:  cpu time      3.9636: real time      4.0116

 eigenvalue-minimisations  :  3900
 total energy-change (2. order) : 0.6161999E-01  (-0.9318189E-01)
 number of electron     223.9999799 magnetization      -0.1676130
 augmentation part      124.8857558 magnetization      -0.0744517

 Broyden mixing:
  rms(total) = 0.31039E+00    rms(broyden)= 0.31033E+00
  rms(prec ) = 0.41246E+00
  weight for this iteration     100.00

 eigenvalues of (default mixing * dielectric matrix)
  average eigenvalue GAMMA=   0.9865
  2.5084  1.3393  0.6153  0.6153  0.4921  0.3486

 Free energy of the ion-electron system (eV)
  ---------------------------------------------------
  alpha Z        PSCENC =      1539.35162122
  Ewald energy   TEWEN  =    -27655.99416997
  -Hartree energ DENC   =    -14000.87828850
  -exchange      EXHF   =         0.00000000
  -V(xc)+E(xc)   XCENC  =       827.62986577
  PAW double counting   =     39896.39247972   -40910.05101981
  entropy T*S    EENTRO =        -0.02051032
  eigenvalues    EBANDS =     -2756.64323275
  atomic energy  EATOM  =     42985.99789090
  Solvation  Ediel_sol  =         0.00000000
  ---------------------------------------------------
  free energy    TOTEN  =       -74.21536375 eV

  energy without entropy =      -74.19485342  energy(sigma->0) =      -74.20852697


--------------------------------------------------------------------------------------------------------




--------------------------------------- Iteration      1(  12)  ---------------------------------------


    POTLOK:  cpu time      0.0309: real time      0.0318
    SETDIJ:  cpu time      0.9425: real time      0.9503
     EDDAV:  cpu time      3.0889: real time      3.1299
       DOS:  cpu time      0.0005: real time      0.0005
    CHARGE:  cpu time      0.0765: real time      0.0773
    MIXING:  cpu time      0.0010: real time      0.0010
    --------------------------------------------
      LOOP:  cpu time      4.1402: real time      4.1909

 eigenvalue-minimisations  :  4176
 total energy-change (2. order) : 0.3335457E-01  (-0.2372972E-01)
 number of electron     223.9999799 magnetization      -0.0403311
 augmentation part      124.9750665 magnetization       0.0171474

 Broyden mixing:
  rms(total) = 0.17895E+00    rms(broyden)= 0.17894E+00
  rms(prec ) = 0.23967E+00
  weight for this iteration     100.00

 eigenvalues of (default mixing * dielectric matrix)
  average eigenvalue GAMMA=   0.9706
  2.7595  1.3291  0.6400  0.6400  0.5869  0.4446  0.3942

 Free energy of the ion-electron system (eV)
  ---------------------------------------------------
  alpha Z        PSCENC =      1539.35162122
  Ewald energy   TEWEN  =    -27655.99416997
  -Hartree energ DENC   =    -13999.75997592
  -exchange      EXHF   =         0.00000000
  -V(xc)+E(xc)   XCENC  =       827.58895398
  PAW double counting   =     39845.39768271   -40856.06799078
  entropy T*S    EENTRO =        -0.02249357
  eigenvalues    EBANDS =     -2760.67352775
  atomic energy  EATOM  =     42985.99789090
  Solvation  Ediel_sol  =         0.00000000
  ---------------------------------------------------
  free energy    TOTEN  =       -74.18200917 eV

  energy without entropy =      -74.15951560  energy(sigma->0) =      -74.17451132


--------------------------------------------------------------------------------------------------------




--------------------------------------- Iteration      1(  13)  ---------------------------------------


    POTLOK:  cpu time      0.0309: real time      0.0318
    SETDIJ:  cpu time      0.9474: real time      0.9562
     EDDAV:  cpu time      3.2455: real time      3.2873
       DOS:  cpu time      0.0006: real time      0.0006
    CHARGE:  cpu time      0.0747: real time      0.0755
    MIXING:  cpu time      0.0012: real time      0.0012
    --------------------------------------------
      LOOP:  cpu time      4.3003: real time      4.3527

 eigenvalue-minimisations  :  4404
 total energy-change (2. order) : 0.1145047E-01  (-0.3935704E-02)
 number of electron     223.9999799 magnetization      -0.0155286
 augmentation part      124.9616471 magnetization       0.0154957

 Broyden mixing:
  rms(total) = 0.13715E+00    rms(broyden)= 0.13715E+00
  rms(prec ) = 0.16529E+00
  weight for this iteration     100.00

 eigenvalues of (default mixing * dielectric matrix)
  average eigenvalue GAMMA=   0.9877
  2.6830  1.2061  1.2061  0.6827  0.6827  0.6263  0.4207  0.3942

 Free energy of the ion-electron system (eV)
  ---------------------------------------------------
  alpha Z        PSCENC =      1539.35162122
  Ewald energy   TEWEN  =    -27655.99416997
  -Hartree energ DENC   =    -14005.28215036
  -exchange      EXHF   =         0.00000000
  -V(xc)+E(xc)   XCENC  =       827.75236802
  PAW double counting   =     39837.94442949   -40847.81122590
  entropy T*S    EENTRO =        -0.02253006
  eigenvalues    EBANDS =     -2756.10679205
  atomic energy  EATOM  =     42985.99789090
  Solvation  Ediel_sol  =         0.00000000
  ---------------------------------------------------
  free energy    TOTEN  =       -74.17055870 eV

  energy without entropy =      -74.14802864  energy(sigma->0) =      -74.16304868


--------------------------------------------------------------------------------------------------------




--------------------------------------- Iteration      1(  14)  ---------------------------------------


    POTLOK:  cpu time      0.0316: real time      0.0323
    SETDIJ:  cpu time      0.9466: real time      0.9549
     EDDAV:  cpu time      3.5347: real time      3.5773
       DOS:  cpu time      0.0005: real time      0.0006
    CHARGE:  cpu time      0.0759: real time      0.0767
    MIXING:  cpu time      0.0010: real time      0.0010
    --------------------------------------------
      LOOP:  cpu time      4.5904: real time      4.6427

 eigenvalue-minimisations  :  4896
 total energy-change (2. order) : 0.5176028E-02  (-0.8634697E-03)
 number of electron     223.9999799 magnetization       0.0000433
 augmentation part      124.9137680 magnetization       0.0047183

 Broyden mixing:
  rms(total) = 0.70789E-01    rms(broyden)= 0.70787E-01
  rms(prec ) = 0.81609E-01
  weight for this iteration     100.00

 eigenvalues of (default mixing * dielectric matrix)
  average eigenvalue GAMMA=   0.9833
  2.5584  1.6651  1.0391  0.9950  0.6251  0.6251  0.5359  0.4028  0.4028

 Free energy of the ion-electron system (eV)
  ---------------------------------------------------
  alpha Z        PSCENC =      1539.35162122
  Ewald energy   TEWEN  =    -27655.99416997
  -Hartree energ DENC   =    -14010.50346565
  -exchange      EXHF   =         0.00000000
  -V(xc)+E(xc)   XCENC  =       827.90249744
  PAW double counting   =     39830.68113963   -40839.47692711
  entropy T*S    EENTRO =        -0.02272535
  eigenvalues    EBANDS =     -2752.10124379
  atomic energy  EATOM  =     42985.99789090
  Solvation  Ediel_sol  =         0.00000000
  ---------------------------------------------------
  free energy    TOTEN  =       -74.16538267 eV

  energy without entropy =      -74.14265733  energy(sigma->0) =      -74.15780756


--------------------------------------------------------------------------------------------------------




--------------------------------------- Iteration      1(  15)  ---------------------------------------


    POTLOK:  cpu time      0.0302: real time      0.0462
    SETDIJ:  cpu time      0.9507: real time      0.9596
     EDDAV:  cpu time      3.0074: real time      3.0432
       DOS:  cpu time      0.0007: real time      0.0007
    CHARGE:  cpu time      0.0773: real time      0.0780
    MIXING:  cpu time      0.0011: real time      0.0012
    --------------------------------------------
      LOOP:  cpu time      4.0675: real time      4.1289

 eigenvalue-minimisations  :  3948
 total energy-change (2. order) : 0.6093190E-03  (-0.4192985E-03)
 number of electron     223.9999799 magnetization       0.0074834
 augmentation part      124.8864355 magnetization       0.0076259

 Broyden mixing:
  rms(total) = 0.41141E-01    rms(broyden)= 0.41140E-01
  rms(prec ) = 0.46482E-01
  weight for this iteration     100.00

 eigenvalues of (default mixing * dielectric matrix)
  average eigenvalue GAMMA=   0.9849
  2.4312  2.0878  1.0686  1.0686  0.6233  0.6233  0.5686  0.5686  0.4046  0.4046

 Free energy of the ion-electron system (eV)
  ---------------------------------------------------
  alpha Z        PSCENC =      1539.35162122
  Ewald energy   TEWEN  =    -27655.99416997
  -Hartree energ DENC   =    -14012.51556333
  -exchange      EXHF   =         0.00000000
  -V(xc)+E(xc)   XCENC  =       827.96241831
  PAW double counting   =     39827.75570700   -40836.10693476
  entropy T*S    EENTRO =        -0.02254982
  eigenvalues    EBANDS =     -2750.59319290
  atomic energy  EATOM  =     42985.99789090
  Solvation  Ediel_sol  =         0.00000000
  ---------------------------------------------------
  free energy    TOTEN  =       -74.16477336 eV

  energy without entropy =      -74.14222353  energy(sigma->0) =      -74.15725675


--------------------------------------------------------------------------------------------------------




--------------------------------------- Iteration      1(  16)  ---------------------------------------


    POTLOK:  cpu time      0.0321: real time      0.0330
    SETDIJ:  cpu time      0.9448: real time      0.9534
     EDDAV:  cpu time      3.3334: real time      3.3750
       DOS:  cpu time      0.0006: real time      0.0006
    CHARGE:  cpu time      0.0741: real time      0.0748
    MIXING:  cpu time      0.0011: real time      0.0011
    --------------------------------------------
      LOOP:  cpu time      4.3860: real time      4.4379

 eigenvalue-minimisations  :  4500
 total energy-change (2. order) : 0.3280318E-03  (-0.5014933E-04)
 number of electron     223.9999799 magnetization       0.0063126
 augmentation part      124.8713091 magnetization       0.0044658

 Broyden mixing:
  rms(total) = 0.20778E-01    rms(broyden)= 0.20777E-01
  rms(prec ) = 0.23166E-01
  weight for this iteration     100.00

 eigenvalues of (default mixing * dielectric matrix)
  average eigenvalue GAMMA=   1.0035
  2.4250  2.4250  1.1178  1.1178  0.6722  0.6722  0.6611  0.6611  0.4039  0.4039
  0.4783

 Free energy of the ion-electron system (eV)
  ---------------------------------------------------
  alpha Z        PSCENC =      1539.35162122
  Ewald energy   TEWEN  =    -27655.99416997
  -Hartree energ DENC   =    -14013.98533256
  -exchange      EXHF   =         0.00000000
  -V(xc)+E(xc)   XCENC  =       828.00589371
  PAW double counting   =     39826.38481900   -40834.39698119
  entropy T*S    EENTRO =        -0.02252127
  eigenvalues    EBANDS =     -2749.50566516
  atomic energy  EATOM  =     42985.99789090
  Solvation  Ediel_sol  =         0.00000000
  ---------------------------------------------------
  free energy    TOTEN  =       -74.16444532 eV

  energy without entropy =      -74.14192405  energy(sigma->0) =      -74.15693823


--------------------------------------------------------------------------------------------------------




--------------------------------------- Iteration      1(  17)  ---------------------------------------


    POTLOK:  cpu time      0.0315: real time      0.0322
    SETDIJ:  cpu time      0.9471: real time      0.9550
     EDDAV:  cpu time      3.6028: real time      3.6506
       DOS:  cpu time      0.0006: real time      0.0006
    CHARGE:  cpu time      0.0776: real time      0.0785
    MIXING:  cpu time      0.0013: real time      0.0013
    --------------------------------------------
      LOOP:  cpu time      4.6609: real time      4.7182

 eigenvalue-minimisations  :  4932
 total energy-change (2. order) : 0.7042583E-04  (-0.1251248E-04)
 number of electron     223.9999799 magnetization       0.0015554
 augmentation part      124.8639191 magnetization      -0.0003447

 Broyden mixing:
  rms(total) = 0.99675E-02    rms(broyden)= 0.99671E-02
  rms(prec ) = 0.10819E-01
  weight for this iteration     100.00

 eigenvalues of (default mixing * dielectric matrix)
  average eigenvalue GAMMA=   1.0443
  2.6735  2.2005  1.2405  1.2405  1.2226  0.8027  0.6477  0.6477  0.5645  0.4046
  0.4046  0.4817

 Free energy of the ion-electron system (eV)
  ---------------------------------------------------
  alpha Z        PSCENC =      1539.35162122
  Ewald energy   TEWEN  =    -27655.99416997
  -Hartree energ DENC   =    -14014.68649811
  -exchange      EXHF   =         0.00000000
  -V(xc)+E(xc)   XCENC  =       828.02686903
  PAW double counting   =     39826.23369611   -40834.05865789
  entropy T*S    EENTRO =        -0.02248747
  eigenvalues    EBANDS =     -2749.01263872
  atomic energy  EATOM  =     42985.99789090
  Solvation  Ediel_sol  =         0.00000000
  ---------------------------------------------------
  free energy    TOTEN  =       -74.16437490 eV

  energy without entropy =      -74.14188743  energy(sigma->0) =      -74.15687907


--------------------------------------------------------------------------------------------------------




--------------------------------------- Iteration      1(  18)  ---------------------------------------


    POTLOK:  cpu time      0.0322: real time      0.0331
    SETDIJ:  cpu time      0.9465: real time      0.9551
     EDDAV:  cpu time      3.3749: real time      3.4164
       DOS:  cpu time      0.0005: real time      0.0005
    CHARGE:  cpu time      0.0740: real time      0.0748
    MIXING:  cpu time      0.0013: real time      0.0013
    --------------------------------------------
      LOOP:  cpu time      4.4295: real time      4.4813

 eigenvalue-minimisations  :  4572
 total energy-change (2. order) : 0.9095587E-05  (-0.3250253E-05)
 number of electron     223.9999799 magnetization      -0.0002773
 augmentation part      124.8615601 magnetization      -0.0010358

 Broyden mixing:
  rms(total) = 0.54822E-02    rms(broyden)= 0.54821E-02
  rms(prec ) = 0.60297E-02
  weight for this iteration     100.00

 eigenvalues of (default mixing * dielectric matrix)
  average eigenvalue GAMMA=   1.0759
  2.6506  2.1359  1.9434  1.5485  1.1391  0.8121  0.6474  0.6474  0.5912  0.5912
  0.4040  0.4040  0.4724

 Free energy of the ion-electron system (eV)
  ---------------------------------------------------
  alpha Z        PSCENC =      1539.35162122
  Ewald energy   TEWEN  =    -27655.99416997
  -Hartree energ DENC   =    -14014.89672442
  -exchange      EXHF   =         0.00000000
  -V(xc)+E(xc)   XCENC  =       828.03415657
  PAW double counting   =     39824.20524985   -40831.98433279
  entropy T*S    EENTRO =        -0.02248576
  eigenvalues    EBANDS =     -2748.85557140
  atomic energy  EATOM  =     42985.99789090
  Solvation  Ediel_sol  =         0.00000000
  ---------------------------------------------------
  free energy    TOTEN  =       -74.16436580 eV

  energy without entropy =      -74.14188004  energy(sigma->0) =      -74.15687055


--------------------------------------------------------------------------------------------------------




--------------------------------------- Iteration      1(  19)  ---------------------------------------


    POTLOK:  cpu time      0.0319: real time      0.0326
    SETDIJ:  cpu time      0.9437: real time      0.9519
     EDDAV:  cpu time      2.7807: real time      2.8159
       DOS:  cpu time      0.0005: real time      0.0006
    CHARGE:  cpu time      0.0788: real time      0.0797
    MIXING:  cpu time      0.0014: real time      0.0014
    --------------------------------------------
      LOOP:  cpu time      3.8370: real time      3.8821

 eigenvalue-minimisations  :  3516
 total energy-change (2. order) : 0.3936533E-05  (-0.9368372E-06)
 number of electron     223.9999799 magnetization      -0.0006098
 augmentation part      124.8603367 magnetization      -0.0006439

 Broyden mixing:
  rms(total) = 0.27769E-02    rms(broyden)= 0.27769E-02
  rms(prec ) = 0.32009E-02
  weight for this iteration     100.00

 eigenvalues of (default mixing * dielectric matrix)
  average eigenvalue GAMMA=   1.0854
  2.5963  2.5963  2.1974  1.4253  1.1131  0.6527  0.6527  0.7716  0.6828  0.6828
  0.5462  0.4042  0.4042  0.4695

 Free energy of the ion-electron system (eV)
  ---------------------------------------------------
  alpha Z        PSCENC =      1539.35162122
  Ewald energy   TEWEN  =    -27655.99416997
  -Hartree energ DENC   =    -14014.99229924
  -exchange      EXHF   =         0.00000000
  -V(xc)+E(xc)   XCENC  =       828.03768372
  PAW double counting   =     39822.02680204   -40829.78917586
  entropy T*S    EENTRO =        -0.02248426
  eigenvalues    EBANDS =     -2748.78023040
  atomic energy  EATOM  =     42985.99789090
  Solvation  Ediel_sol  =         0.00000000
  ---------------------------------------------------
  free energy    TOTEN  =       -74.16436187 eV

  energy without entropy =      -74.14187760  energy(sigma->0) =      -74.15686711


--------------------------------------------------------------------------------------------------------




--------------------------------------- Iteration      1(  20)  ---------------------------------------


    POTLOK:  cpu time      0.0327: real time      0.0336
    SETDIJ:  cpu time      0.9479: real time      0.9569
     EDDAV:  cpu time      2.2611: real time      2.2879
       DOS:  cpu time      0.0005: real time      0.0006
    CHARGE:  cpu time      0.0755: real time      0.0762
    MIXING:  cpu time      0.0013: real time      0.0014
    --------------------------------------------
      LOOP:  cpu time      3.3191: real time      3.3564

 eigenvalue-minimisations  :  2700
 total energy-change (2. order) : 0.2818553E-05  (-0.2457998E-06)
 number of electron     223.9999799 magnetization      -0.0004674
 augmentation part      124.8591194 magnetization      -0.0003315

 Broyden mixing:
  rms(total) = 0.12264E-02    rms(broyden)= 0.12263E-02
  rms(prec ) = 0.13977E-02
  weight for this iteration     100.00

 eigenvalues of (default mixing * dielectric matrix)
  average eigenvalue GAMMA=   1.0686
  2.7093  2.7093  2.1407  1.4177  1.0845  0.6547  0.6547  0.8029  0.7490  0.7490
  0.4041  0.4041  0.4685  0.5401  0.5401

 Free energy of the ion-electron system (eV)
  ---------------------------------------------------
  alpha Z        PSCENC =      1539.35162122
  Ewald energy   TEWEN  =    -27655.99416997
  -Hartree energ DENC   =    -14015.08423682
  -exchange      EXHF   =         0.00000000
  -V(xc)+E(xc)   XCENC  =       828.04065479
  PAW double counting   =     39820.96121243   -40828.71337658
  entropy T*S    EENTRO =        -0.02247588
  eigenvalues    EBANDS =     -2748.70147913
  atomic energy  EATOM  =     42985.99789090
  Solvation  Ediel_sol  =         0.00000000
  ---------------------------------------------------
  free energy    TOTEN  =       -74.16435905 eV

  energy without entropy =      -74.14188317  energy(sigma->0) =      -74.15686709


--------------------------------------------------------------------------------------------------------




--------------------------------------- Iteration      1(  21)  ---------------------------------------


    POTLOK:  cpu time      0.0307: real time      0.0314
    SETDIJ:  cpu time      0.9473: real time      0.9550
     EDDAV:  cpu time      2.0364: real time      2.0616
[...]
-66.789  -0.032  -0.035   8.437   0.010   0.010  -0.044  -0.040
 -0.032 -66.787  -0.032   0.010   8.437   0.010  -0.006  -0.045
 -0.035  -0.032 -66.789   0.010   0.010   8.437  -0.044  -0.006
  8.437   0.010   0.010   5.871  -0.003  -0.003   0.012   0.011
  0.010   8.437   0.010  -0.003   5.872  -0.003   0.001   0.012
  0.010   0.010   8.437  -0.003  -0.003   5.871   0.012   0.001
 -0.044  -0.006  -0.044   0.012   0.001   0.012  -5.979  -0.021
 -0.040  -0.045  -0.006   0.011   0.012   0.001  -0.021  -5.983
  0.021  -0.044   0.021  -0.006   0.012  -0.006   0.027  -0.012
 -0.006  -0.045  -0.040   0.001   0.012   0.011  -0.021  -0.020
  0.038   0.000  -0.038  -0.011  -0.000   0.011   0.000   0.020
 -0.043  -0.006  -0.043   0.012   0.001   0.012  -6.562  -0.021
 -0.039  -0.045  -0.006   0.011   0.012   0.001  -0.021  -6.566
  0.021  -0.043   0.021  -0.006   0.012  -0.006   0.026  -0.012
 -0.006  -0.045  -0.039   0.001   0.012   0.011  -0.021  -0.020
  0.038   0.000  -0.038  -0.011  -0.000   0.011   0.000   0.020
  0.010   0.010   0.010  -0.003  -0.003  -0.003   0.004   0.004
  0.022   0.020   0.022  -0.007  -0.006  -0.007   0.008   0.007
 pseudopotential strength for first ion, spin component:           2
-66.789  -0.032  -0.035   8.437   0.010   0.010  -0.044  -0.040
 -0.032 -66.787  -0.032   0.010   8.437   0.010  -0.006  -0.045
 -0.035  -0.032 -66.789   0.010   0.010   8.437  -0.044  -0.006
  8.437   0.010   0.010   5.871  -0.003  -0.003   0.012   0.011
  0.010   8.437   0.010  -0.003   5.872  -0.003   0.001   0.012
  0.010   0.010   8.437  -0.003  -0.003   5.871   0.012   0.001
 -0.044  -0.006  -0.044   0.012   0.001   0.012  -5.979  -0.021
 -0.040  -0.045  -0.006   0.011   0.012   0.001  -0.021  -5.983
  0.021  -0.044   0.021  -0.006   0.012  -0.006   0.027  -0.012
 -0.006  -0.045  -0.040   0.001   0.012   0.011  -0.021  -0.020
  0.038   0.000  -0.038  -0.011  -0.000   0.011   0.000   0.020
 -0.043  -0.006  -0.043   0.012   0.001   0.012  -6.562  -0.021
 -0.039  -0.045  -0.006   0.011   0.012   0.001  -0.021  -6.566
  0.021  -0.043   0.021  -0.006   0.012  -0.006   0.026  -0.012
 -0.006  -0.045  -0.039   0.001   0.012   0.011  -0.021  -0.020
  0.038   0.000  -0.038  -0.011  -0.000   0.011   0.000   0.020
  0.010   0.010   0.010  -0.003  -0.003  -0.003   0.004   0.004
  0.022   0.020   0.022  -0.007  -0.006  -0.007   0.008   0.007
 total augmentation occupancy for first ion, spin component:           1
  1.997   0.000   0.000  -0.016   0.000   0.000   0.006   0.005  -0.004  -0.002  -0.007  -0.005  -0.005   0.004   0.002   0.006
  0.000   1.997   0.000   0.000  -0.016   0.000  -0.002   0.005   0.006   0.005   0.000   0.002  -0.005  -0.005  -0.005  -0.000
  0.000   0.000   1.997   0.000   0.000  -0.016   0.006  -0.002  -0.004   0.005   0.007  -0.005   0.002   0.004  -0.005  -0.006
 -0.016   0.000   0.000   0.094   0.000  -0.005   0.057   0.045   0.007   0.032  -0.016  -0.040  -0.033  -0.006  -0.020   0.011
  0.000  -0.016   0.000   0.000   0.100   0.000   0.033   0.067   0.014   0.067   0.000  -0.020  -0.050  -0.003  -0.050  -0.000
  0.000   0.000  -0.016  -0.005   0.000   0.094   0.057   0.032   0.007   0.045   0.016  -0.040  -0.020  -0.006  -0.033  -0.011
  0.006  -0.002   0.006   0.057   0.033   0.057   3.529  -0.139   0.141  -0.139  -0.000  -1.254   0.094  -0.081   0.094   0.000
  0.005   0.005  -0.002   0.045   0.067   0.032  -0.139   3.497  -0.060  -0.093   0.050   0.094  -1.314   0.036   0.088  -0.019
 -0.004   0.006  -0.004   0.007   0.014   0.007   0.141  -0.060   4.092  -0.060  -0.000  -0.080   0.035  -1.593   0.035   0.000
 -0.002   0.005   0.005   0.032   0.067   0.045  -0.139  -0.093  -0.060   3.497  -0.050   0.094   0.088   0.036  -1.314   0.019
 -0.007   0.000   0.007  -0.016   0.000   0.016  -0.000   0.050  -0.000  -0.050   4.031   0.000  -0.017   0.000   0.017  -1.595
 -0.005   0.002  -0.005  -0.040  -0.020  -0.040  -1.254   0.094  -0.080   0.094   0.000   0.918  -0.052   0.037  -0.052  -0.000
 -0.005  -0.005   0.002  -0.033  -0.050  -0.020   0.094  -1.314   0.035   0.088  -0.017  -0.052   1.050  -0.015  -0.075  -0.007
  0.004  -0.005   0.004  -0.006  -0.003  -0.006  -0.081   0.036  -1.593   0.036   0.000   0.037  -0.015   1.082  -0.015  -0.000
  0.002  -0.005  -0.005  -0.020  -0.050  -0.033   0.094   0.088   0.035  -1.314   0.017  -0.052  -0.075  -0.015   1.050   0.007
  0.006  -0.000  -0.006   0.011  -0.000  -0.011   0.000  -0.019   0.000   0.019  -1.595  -0.000  -0.007  -0.000   0.007   1.126
 -0.029  -0.027  -0.029  -0.007  -0.004  -0.007  -0.003  -0.073  -0.069  -0.073  -0.000  -0.016   0.045   0.064   0.045   0.000
  0.013   0.013   0.013   0.001   0.001   0.001   0.034   0.033   0.001   0.033   0.000  -0.005  -0.005  -0.000  -0.005   0.000
 total augmentation occupancy for first ion, spin component:           2
  0.000   0.000   0.000  -0.000   0.000   0.000   0.000  -0.000   0.000   0.000  -0.000  -0.000   0.000  -0.000  -0.000   0.000
  0.000   0.000   0.000  -0.000  -0.000  -0.000  -0.000   0.000   0.000   0.000  -0.000   0.000  -0.000  -0.000  -0.000   0.000
  0.000   0.000   0.000   0.000   0.000  -0.000   0.000   0.000   0.000  -0.000   0.000  -0.000  -0.000  -0.000   0.000  -0.000
 -0.000  -0.000   0.000  -0.000  -0.000   0.000  -0.000   0.000  -0.000  -0.000  -0.000  -0.000  -0.000   0.000   0.000   0.000
  0.000  -0.000   0.000  -0.000  -0.000  -0.000  -0.000  -0.000   0.000  -0.000  -0.000   0.000   0.000  -0.000   0.000   0.000
  0.000  -0.000  -0.000   0.000  -0.000  -0.000  -0.000  -0.000  -0.000   0.000   0.000  -0.000   0.000   0.000  -0.000  -0.000
  0.000  -0.000   0.000  -0.000  -0.000  -0.000   0.000   0.000  -0.000   0.000   0.000  -0.000  -0.000   0.000  -0.000  -0.000
 -0.000   0.000   0.000   0.000  -0.000  -0.000   0.000   0.000   0.000  -0.000  -0.000  -0.000  -0.000  -0.000   0.000   0.000
  0.000   0.000   0.000  -0.000   0.000  -0.000  -0.000   0.000   0.000   0.000  -0.000   0.000  -0.000   0.000  -0.000   0.000
  0.000   0.000  -0.000  -0.000  -0.000   0.000   0.000  -0.000   0.000   0.000   0.000  -0.000   0.000  -0.000  -0.000  -0.000
 -0.000  -0.000   0.000  -0.000  -0.000   0.000   0.000  -0.000  -0.000   0.000   0.000  -0.000   0.000   0.000  -0.000   0.000
 -0.000   0.000  -0.000  -0.000   0.000  -0.000  -0.000  -0.000   0.000  -0.000  -0.000  -0.000   0.000  -0.000   0.000   0.000
  0.000  -0.000  -0.000  -0.000   0.000   0.000  -0.000  -0.000  -0.000   0.000   0.000   0.000  -0.000   0.000  -0.000   0.000
 -0.000  -0.000  -0.000   0.000  -0.000   0.000   0.000  -0.000   0.000  -0.000   0.000  -0.000   0.000  -0.000   0.000   0.000
 -0.000  -0.000   0.000   0.000   0.000  -0.000  -0.000   0.000  -0.000  -0.000  -0.000   0.000  -0.000   0.000  -0.000  -0.000
  0.000   0.000  -0.000   0.000   0.000  -0.000  -0.000   0.000   0.000  -0.000   0.000   0.000   0.000   0.000  -0.000  -0.000
  0.000  -0.000   0.000  -0.000   0.000  -0.000   0.000   0.000   0.000   0.000   0.000   0.000  -0.000  -0.000  -0.000   0.000
 -0.000   0.000  -0.000  -0.000  -0.000  -0.000  -0.000  -0.000  -0.000  -0.000   0.000  -0.000  -0.000  -0.000  -0.000   0.000


------------------------ aborting loop because EDIFF is reached ----------------------------------------





 total charge

# of ion       s       p       d       f       tot
--------------------------------------------------
    1        0.293   6.157   8.889   0.000  15.339
    2        0.293   6.157   8.889   0.000  15.339
    3        0.293   6.157   8.889   0.000  15.339
    4        0.293   6.157   8.889   0.000  15.339
    5        0.293   6.157   8.889   0.000  15.339
    6        0.293   6.157   8.889   0.000  15.339
    7        0.293   6.157   8.889   0.000  15.339
    8        0.293   6.157   8.889   0.000  15.339
    9        0.258   6.141   8.886   0.000  15.285
   10        0.496   0.427   8.542   0.000   9.465
   11        0.468   0.466   8.535   0.000   9.469
   12        0.496   0.427   8.542   0.000   9.465
   13        0.468   0.466   8.535   0.000   9.469
   14        0.461   0.444   8.528   0.000   9.434
   15        0.512   0.480   8.629   0.000   9.620
   16        2.272   6.475   1.119   0.076   9.942
--------------------------------------------------
tot          7.775  64.584 132.425   0.076 204.861



 magnetization (x)

# of ion       s       p       d       f       tot
--------------------------------------------------
    1       -0.000  -0.000   0.000   0.000   0.000
    2       -0.000  -0.000   0.000   0.000   0.000
    3       -0.000  -0.000   0.000   0.000   0.000
    4       -0.000  -0.000   0.000   0.000   0.000
    5       -0.000  -0.000   0.000   0.000   0.000
    6       -0.000  -0.000   0.000   0.000   0.000
    7       -0.000  -0.000   0.000   0.000   0.000
    8       -0.000  -0.000   0.000   0.000   0.000
    9       -0.000  -0.000  -0.000   0.000  -0.000
   10       -0.000  -0.000   0.000   0.000   0.000
   11       -0.000  -0.000   0.000   0.000   0.000
   12       -0.000  -0.000   0.000   0.000   0.000
   13       -0.000  -0.000   0.000   0.000   0.000
   14       -0.000  -0.000  -0.000   0.000  -0.000
   15       -0.000  -0.000  -0.000   0.000  -0.000
   16        0.000  -0.000  -0.000  -0.000  -0.000
--------------------------------------------------
tot         -0.000  -0.000   0.000  -0.000  -0.000
 
    CHARGE:  cpu time      0.0759: real time      0.0767
    FORLOC:  cpu time      0.0014: real time      0.0014
    FORNL :  cpu time      0.5347: real time      0.5413
    STRESS:  cpu time      1.5737: real time      1.5971
    FORCOR:  cpu time      0.0263: real time      0.0267
    FORHAR:  cpu time      0.0035: real time      0.0036
    MIXING:  cpu time      0.0013: real time      0.0013
    OFIELD:  cpu time      0.0004: real time      0.0004

  FORCE on cell =-STRESS in cart. coord.  units (eV):
  Direction    XX          YY          ZZ          XY          YZ          ZX
  --------------------------------------------------------------------------------------
  Alpha Z  1539.35162  1539.35162  1539.35162
  Ewald   -8929.28338 -8929.28338 -9797.48622    -0.00000    -0.00000     0.00000
  Hartree  4979.42320  4979.42320  4056.42856    -0.00000    -0.00000    -0.00000
  E(xc)   -1563.75003 -1563.75003 -1563.96185    -0.00000     0.00000     0.00000
  Local    -138.59986  -138.59986  1651.33424    -0.00000    -0.00000    -0.00000
  n-local  -880.08137  -895.06934  -888.77029    -2.00581    -2.04241     2.39865
  augment  2142.51290  2142.51290  2144.12325    -0.00000     0.00000     0.00000
  Kinetic  2855.47845  2858.86803  2860.63234    -3.43057    -4.34159     0.39570
  Fock        0.00000     0.00000     0.00000     0.00000     0.00000     0.00000
  -------------------------------------------------------------------------------------
  Total      -0.74767    -0.74767     1.65166    -0.00000     0.00000     0.00000
  in kB      -5.29546    -5.29546    11.69807    -0.00000     0.00000     0.00000
  external pressure =        0.37 kB  Pullay stress =        0.00 kB


 VOLUME and BASIS-vectors are now :
 -----------------------------------------------------------------------------
  energy-cutoff  :      520.00
  volume of cell :      226.21
      direct lattice vectors                 reciprocal lattice vectors
     5.727423772 -0.000000000  0.000000000     0.174598570  0.000000000  0.000000000
     0.000000000  5.727423772  0.000000000     0.000000000  0.174598570  0.000000000
     0.000000000  0.000000000  6.896009540     0.000000000  0.000000000  0.145011400

  length of vectors
     5.727423772  5.727423772  6.896009540     0.174598570  0.174598570  0.145011400


 FORCES acting on ions
    electron-ion (+dipol)            ewald-force                    non-local-force                 convergence-correction
 -----------------------------------------------------------------------------------------------
   -.293E+02 -.293E+02 -.312E+03   0.276E+02 0.276E+02 0.310E+03   0.173E+01 0.173E+01 0.169E+01   0.449E-03 0.449E-03 0.293E-02
   -.293E+02 -.293E+02 0.312E+03   0.276E+02 0.276E+02 -.310E+03   0.173E+01 0.173E+01 -.169E+01   0.449E-03 0.449E-03 -.293E-02
   -.293E+02 0.293E+02 -.312E+03   0.276E+02 -.276E+02 0.310E+03   0.173E+01 -.173E+01 0.169E+01   0.449E-03 -.449E-03 0.293E-02
   -.293E+02 0.293E+02 0.312E+03   0.276E+02 -.276E+02 -.310E+03   0.173E+01 -.173E+01 -.169E+01   0.449E-03 -.449E-03 -.293E-02
   0.293E+02 -.293E+02 -.312E+03   -.276E+02 0.276E+02 0.310E+03   -.173E+01 0.173E+01 0.169E+01   -.449E-03 0.449E-03 0.293E-02
   0.293E+02 -.293E+02 0.312E+03   -.276E+02 0.276E+02 -.310E+03   -.173E+01 0.173E+01 -.169E+01   -.449E-03 0.449E-03 -.293E-02
   0.293E+02 0.293E+02 -.312E+03   -.276E+02 -.276E+02 0.310E+03   -.173E+01 -.173E+01 0.169E+01   -.449E-03 -.449E-03 0.293E-02
   0.293E+02 0.293E+02 0.312E+03   -.276E+02 -.276E+02 -.310E+03   -.173E+01 -.173E+01 -.169E+01   -.449E-03 -.449E-03 -.293E-02
   0.175E-11 0.167E-11 -.303E-11   -.811E-13 -.906E-13 0.688E-13   -.620E-23 -.464E-24 -.243E-23   -.332E-12 -.702E-13 -.363E-12
   0.778E-13 0.137E-11 -.262E-12   0.164E-12 -.316E-13 -.671E-13   0.102E-23 0.126E-22 -.168E-23   -.921E-13 -.297E-13 0.847E-13
   0.590E-13 -.320E-12 -.173E-11   -.160E-12 -.488E-13 0.126E-12   -.254E-24 0.604E-23 -.204E-23   -.804E-13 -.532E-14 -.356E-13
   0.545E-12 0.524E-11 0.149E-11   -.291E-12 0.855E-13 -.668E-13   0.835E-23 0.493E-24 -.155E-23   0.454E-13 0.297E-13 0.540E-13
   0.525E-12 -.168E-11 0.212E-11   0.365E-13 -.113E-12 0.153E-12   -.307E-23 0.834E-25 -.273E-23   0.569E-13 0.338E-13 -.899E-13
   0.551E-12 0.954E-12 0.996E-12   -.978E-13 -.576E-13 0.149E-13   0.107E-22 -.451E-23 0.181E-26   0.707E-13 -.301E-13 0.274E-13
   0.529E-12 0.100E-11 -.349E-11   -.211E-12 0.297E-13 0.105E-13   -.213E-23 -.164E-23 -.205E-23   0.444E-13 -.350E-13 -.622E-13
   0.121E-13 -.580E-12 0.480E-12   0.129E-12 0.118E-13 -.116E-13   0.665E-24 -.654E-24 0.513E-25   -.863E-13 0.110E-13 0.150E-12
 -----------------------------------------------------------------------------------------------
   0.462E-10 0.545E-10 -.657E-10   -.114E-12 -.300E-13 0.114E-12   -.133E-14 0.444E-15 -.124E-22   -.320E-12 0.217E-12 -.643E-13
 
 
 POSITION                                       TOTAL-FORCE (eV/Angst)
 -----------------------------------------------------------------------------------
      5.67354      5.67354      6.81804         0.060367      0.060367     -0.025622
      5.67354      5.67354      3.52597         0.060367      0.060367      0.025622
      5.67354      2.91759      6.81804         0.060367     -0.060367     -0.025622
      5.67354      2.91759      3.52597         0.060367     -0.060367      0.025622
      2.91759      5.67354      6.81804        -0.060367      0.060367     -0.025622
      2.91759      5.67354      3.52597        -0.060367      0.060367      0.025622
      2.91759      2.91759      6.81804        -0.060367     -0.060367     -0.025622
      2.91759      2.91759      3.52597        -0.060367     -0.060367      0.025622
      1.43186      1.43186      5.17201        -0.000000     -0.000000     -0.000000
      1.43186      4.29557      1.72400        -0.000000      0.000000     -0.000000
      1.43186      4.29557      5.17201        -0.000000      0.000000      0.000000
      4.29557      1.43186      1.72400        -0.000000     -0.000000      0.000000
      4.29557      1.43186      5.17201        -0.000000     -0.000000     -0.000000
      4.29557      4.29557      1.72400        -0.000000      0.000000      0.000000
      4.29557      4.29557      5.17201        -0.000000     -0.000000      0.000000
      1.43186      1.43186      1.72400        -0.000000      0.000000     -0.000000
 -----------------------------------------------------------------------------------
    total drift:                                0.000000      0.000000     -0.000000


--------------------------------------------------------------------------------------------------------



  FREE ENERGIE OF THE ION-ELECTRON SYSTEM (eV)
  ---------------------------------------------------
  free  energy   TOTEN  =       -74.16435848 eV

  energy  without entropy=      -74.14188422  energy(sigma->0) =      -74.15686706
 


--------------------------------------------------------------------------------------------------------


    POTLOK:  cpu time      0.9772: real time      0.9855


--------------------------------------------------------------------------------------------------------


 stress matrix after NEB project (eV)
     -0.74767     -0.00000      0.00000
     -0.00000     -0.74767     -0.00000
     -0.00000      0.00000      1.65166
  FORCES: max atom, RMS     0.089134    0.063027
  FORCE total and by dimension    0.252108    0.060367
  Stress total and by dimension    1.961120    1.651658
     LOOP+:  cpu time     87.3878: real time     89.0660
    4ORBIT:  cpu time      0.0000: real time      0.0000



 total charge

# of ion       s       p       d       f       tot
--------------------------------------------------
    1        0.293   6.157   8.889   0.000  15.339
    2        0.293   6.157   8.889   0.000  15.339
    3        0.293   6.157   8.889   0.000  15.339
    4        0.293   6.157   8.889   0.000  15.339
    5        0.293   6.157   8.889   0.000  15.339
    6        0.293   6.157   8.889   0.000  15.339
    7        0.293   6.157   8.889   0.000  15.339
    8        0.293   6.157   8.889   0.000  15.339
    9        0.258   6.141   8.886   0.000  15.285
   10        0.496   0.427   8.542   0.000   9.465
   11        0.468   0.466   8.535   0.000   9.469
   12        0.496   0.427   8.542   0.000   9.465
   13        0.468   0.466   8.535   0.000   9.469
   14        0.461   0.444   8.528   0.000   9.434
   15        0.512   0.480   8.629   0.000   9.620
   16        2.272   6.475   1.119   0.076   9.942
--------------------------------------------------
tot          7.775  64.584 132.425   0.076 204.861



 magnetization (x)

# of ion       s       p       d       f       tot
--------------------------------------------------
    1       -0.000  -0.000   0.000   0.000   0.000
    2       -0.000  -0.000   0.000   0.000   0.000
    3       -0.000  -0.000   0.000   0.000   0.000
    4       -0.000  -0.000   0.000   0.000   0.000
    5       -0.000  -0.000   0.000   0.000   0.000
    6       -0.000  -0.000   0.000   0.000   0.000
    7       -0.000  -0.000   0.000   0.000   0.000
    8       -0.000  -0.000   0.000   0.000   0.000
    9       -0.000  -0.000  -0.000   0.000  -0.000
   10       -0.000  -0.000   0.000   0.000   0.000
   11       -0.000  -0.000   0.000   0.000   0.000
   12       -0.000  -0.000   0.000   0.000   0.000
   13       -0.000  -0.000   0.000   0.000   0.000
   14       -0.000  -0.000  -0.000   0.000  -0.000
   15       -0.000  -0.000  -0.000   0.000  -0.000
   16        0.000  -0.000  -0.000  -0.000  -0.000
--------------------------------------------------
tot         -0.000  -0.000   0.000  -0.000  -0.000
 

 total amount of memory used by VASP MPI-rank0    47672. kBytes
=======================================================================

   base      :      30000. kBytes
   nonlr-proj:       7713. kBytes
   fftplans  :       1628. kBytes
   grid      :       4359. kBytes
   one-center:        240. kBytes
   wavefun   :       3732. kBytes
 
  
  
 General timing and accounting informations for this job:
 ========================================================
  
                  Total CPU time used (sec):       92.788
                            User time (sec):       89.898
                          System time (sec):        2.890
                         Elapsed time (sec):      100.157
  
                   Maximum memory used (kb):      455016.
                   Average memory used (kb):          N/A
  
                          Minor page faults:        36815
                          Major page faults:         2734
                 Voluntary context switches:         8576
